
                                 *****************
                                 * O   R   C   A *
                                 *****************

                                            #,                                       
                                            ###                                      
                                            ####                                     
                                            #####                                    
                                            ######                                   
                                           ########,                                 
                                     ,,################,,,,,                         
                               ,,#################################,,                 
                          ,,##########################################,,             
                       ,#########################################, ''#####,          
                    ,#############################################,,   '####,        
                  ,##################################################,,,,####,       
                ,###########''''           ''''###############################       
              ,#####''   ,,,,##########,,,,          '''####'''          '####       
            ,##' ,,,,###########################,,,                        '##       
           ' ,,###''''                  '''############,,,                           
         ,,##''                                '''############,,,,        ,,,,,,###''
      ,#''                                            '''#######################'''  
     '                                                          ''''####''''         
             ,#######,   #######,   ,#######,      ##                                
            ,#'     '#,  ##    ##  ,#'     '#,    #''#        ######   ,####,        
            ##       ##  ##   ,#'  ##            #'  '#       #        #'  '#        
            ##       ##  #######   ##           ,######,      #####,   #    #        
            '#,     ,#'  ##    ##  '#,     ,#' ,#      #,         ##   #,  ,#        
             '#######'   ##     ##  '#######'  #'      '#     #####' # '####'        



                  #######################################################
                  #                        -***-                        #
                  #          Department of theory and spectroscopy      #
                  #    Directorship and core code : Frank Neese         #
                  #        Max Planck Institute fuer Kohlenforschung    #
                  #                Kaiser Wilhelm Platz 1               #
                  #                 D-45470 Muelheim/Ruhr               #
                  #                      Germany                        #
                  #                                                     #
                  #                  All rights reserved                #
                  #                        -***-                        #
                  #######################################################


                         Program Version 5.0.4 -  RELEASE  -


 With contributions from (in alphabetic order):
   Daniel Aravena         : Magnetic Suceptibility
   Michael Atanasov       : Ab Initio Ligand Field Theory (pilot matlab implementation)
   Alexander A. Auer      : GIAO ZORA, VPT2 properties, NMR spectrum
   Ute Becker             : Parallelization
   Giovanni Bistoni       : ED, misc. LED, open-shell LED, HFLD
   Martin Brehm           : Molecular dynamics
   Dmytro Bykov           : SCF Hessian
   Vijay G. Chilkuri      : MRCI spin determinant printing, contributions to CSF-ICE
   Dipayan Datta          : RHF DLPNO-CCSD density
   Achintya Kumar Dutta   : EOM-CC, STEOM-CC
   Dmitry Ganyushin       : Spin-Orbit,Spin-Spin,Magnetic field MRCI
   Miquel Garcia          : C-PCM and meta-GGA Hessian, CC/C-PCM, Gaussian charge scheme
   Yang Guo               : DLPNO-NEVPT2, F12-NEVPT2, CIM, IAO-localization
   Andreas Hansen         : Spin unrestricted coupled pair/coupled cluster methods
   Benjamin Helmich-Paris : MC-RPA, TRAH-SCF, COSX integrals
   Lee Huntington         : MR-EOM, pCC
   Robert Izsak           : Overlap fitted RIJCOSX, COSX-SCS-MP3, EOM
   Marcus Kettner         : VPT2
   Christian Kollmar      : KDIIS, OOCD, Brueckner-CCSD(T), CCSD density, CASPT2, CASPT2-K
   Simone Kossmann        : Meta GGA functionals, TD-DFT gradient, OOMP2, MP2 Hessian
   Martin Krupicka        : Initial AUTO-CI
   Lucas Lang             : DCDCAS
   Marvin Lechner         : AUTO-CI (C++ implementation), FIC-MRCC
   Dagmar Lenk            : GEPOL surface, SMD
   Dimitrios Liakos       : Extrapolation schemes; Compound Job, initial MDCI parallelization
   Dimitrios Manganas     : Further ROCIS development; embedding schemes
   Dimitrios Pantazis     : SARC Basis sets
   Anastasios Papadopoulos: AUTO-CI, single reference methods and gradients
   Taras Petrenko         : DFT Hessian,TD-DFT gradient, ASA, ECA, R-Raman, ABS, FL, XAS/XES, NRVS
   Peter Pinski           : DLPNO-MP2, DLPNO-MP2 Gradient
   Christoph Reimann      : Effective Core Potentials
   Marius Retegan         : Local ZFS, SOC
   Christoph Riplinger    : Optimizer, TS searches, QM/MM, DLPNO-CCSD(T), (RO)-DLPNO pert. Triples
   Tobias Risthaus        : Range-separated hybrids, TD-DFT gradient, RPA, STAB
   Michael Roemelt        : Original ROCIS implementation
   Masaaki Saitow         : Open-shell DLPNO-CCSD energy and density
   Barbara Sandhoefer     : DKH picture change effects
   Avijit Sen             : IP-ROCIS
   Kantharuban Sivalingam : CASSCF convergence, NEVPT2, FIC-MRCI
   Bernardo de Souza      : ESD, SOC TD-DFT
   Georgi Stoychev        : AutoAux, RI-MP2 NMR, DLPNO-MP2 response
   Willem Van den Heuvel  : Paramagnetic NMR
   Boris Wezisla          : Elementary symmetry handling
   Frank Wennmohs         : Technical directorship


 We gratefully acknowledge several colleagues who have allowed us to
 interface, adapt or use parts of their codes:
   Stefan Grimme, W. Hujo, H. Kruse, P. Pracht,  : VdW corrections, initial TS optimization,
                  C. Bannwarth, S. Ehlert          DFT functionals, gCP, sTDA/sTD-DF
   Ed Valeev, F. Pavosevic, A. Kumar             : LibInt (2-el integral package), F12 methods
   Garnet Chan, S. Sharma, J. Yang, R. Olivares  : DMRG
   Ulf Ekstrom                                   : XCFun DFT Library
   Mihaly Kallay                                 : mrcc  (arbitrary order and MRCC methods)
   Jiri Pittner, Ondrej Demel                    : Mk-CCSD
   Frank Weinhold                                : gennbo (NPA and NBO analysis)
   Christopher J. Cramer and Donald G. Truhlar   : smd solvation model
   Lars Goerigk                                  : TD-DFT with DH, B97 family of functionals
   V. Asgeirsson, H. Jonsson                     : NEB implementation
   FAccTs GmbH                                   : IRC, NEB, NEB-TS, DLPNO-Multilevel, CI-OPT
                                                   MM, QMMM, 2- and 3-layer-ONIOM, Crystal-QMMM,
                                                   LR-CPCM, SF, NACMEs, symmetry and pop. for TD-DFT,
                                                   nearIR, NL-DFT gradient (VV10), updates on ESD,
                                                   ML-optimized integration grids
   S Lehtola, MJT Oliveira, MAL Marques          : LibXC Library
   Liviu Ungur et al                             : ANISO software


 Your calculation uses the libint2 library for the computation of 2-el integrals
 For citations please refer to: http://libint.valeyev.net

 Your ORCA version has been built with support for libXC version: 5.1.0
 For citations please refer to: https://tddft.org/programs/libxc/

 This ORCA versions uses:
   CBLAS   interface :  Fast vector & matrix operations
   LAPACKE interface :  Fast linear algebra routines
   SCALAPACK package :  Parallel linear algebra routines
   Shared memory     :  Shared parallel matrices
   BLAS/LAPACK       :  OpenBLAS 0.3.15  USE64BITINT DYNAMIC_ARCH NO_AFFINITY Haswell SINGLE_THREADED
        Core in use  :  Haswell
   Copyright (c) 2011-2014, The OpenBLAS Project


================================================================================

----- Orbital basis set information -----
Your calculation utilizes the basis: def2-TZVP
   F. Weigend and R. Ahlrichs, Phys. Chem. Chem. Phys. 7, 3297 (2005).

----- AuxJ basis set information -----
Your calculation utilizes the auxiliary basis: def2/J
   F. Weigend, Phys. Chem. Chem. Phys. 8, 1057 (2006).

================================================================================
                                        WARNINGS
                       Please study these warnings very carefully!
================================================================================


WARNING: Geometry Optimization
  ===> : Switching off AutoStart
         For restart on a previous wavefunction, please use MOREAD

INFO   : the flag for use of the SHARK integral package has been found!

================================================================================
                                       INPUT FILE
================================================================================
NAME = NiCl4.inp
|  1> # avogadro generated ORCA file
|  2> # Geometry Optimization | B3LYP/def2-TZVP
|  3> # [NiCl4]2-
|  4> # Ni +2
|  5> #
|  6> ! Opt B3LYP def2-TZVP FREQ
|  7> 
|  8> %maxcore 4096
|  9> 
| 10> %pal
| 11>    nprocs 4
| 12> end
| 13> 
| 14> * xyz -2 1
| 15>    Ni     0.000000   -0.000000    0.000000
| 16>    Cl    -0.000000   -1.989000   -1.406400
| 17>    Cl     0.000000    1.989000   -1.406400
| 18>    Cl    -1.989000   -0.000000    1.406400
| 19>    Cl     1.989000   -0.000000    1.406400
| 20> *
| 21> 
| 22> 
| 23> 
| 24>                          ****END OF INPUT****
================================================================================

                       *****************************
                       * Geometry Optimization Run *
                       *****************************

Geometry optimization settings:
Update method            Update   .... BFGS
Choice of coordinates    CoordSys .... Z-matrix Internals
Initial Hessian          InHess   .... Almoef's Model

Convergence Tolerances:
Energy Change            TolE     ....  5.0000e-06 Eh
Max. Gradient            TolMAXG  ....  3.0000e-04 Eh/bohr
RMS Gradient             TolRMSG  ....  1.0000e-04 Eh/bohr
Max. Displacement        TolMAXD  ....  4.0000e-03 bohr
RMS Displacement         TolRMSD  ....  2.0000e-03 bohr
Strict Convergence                ....  False
------------------------------------------------------------------------------
                        ORCA OPTIMIZATION COORDINATE SETUP
------------------------------------------------------------------------------

The optimization will be done in new redundant internal coordinates
Making redundant internal coordinates   ...  (new redundants) done
Evaluating the initial hessian          ...  (Almloef) done
Evaluating the coordinates              ...  done
Calculating the B-matrix                .... done
Calculating the G-matrix                .... done
Diagonalizing the G-matrix              .... done
The first mode is                       ....    1
The number of degrees of freedom        ....    9

    -----------------------------------------------------------------
                    Redundant Internal Coordinates


    -----------------------------------------------------------------
         Definition                    Initial Value    Approx d2E/dq
    -----------------------------------------------------------------
      1. B(Cl  1,Ni  0)                  2.4360         0.304115   
      2. B(Cl  2,Ni  0)                  2.4360         0.304115   
      3. B(Cl  3,Ni  0)                  2.4360         0.304115   
      4. B(Cl  4,Ni  0)                  2.4360         0.304115   
      5. A(Cl  1,Ni  0,Cl  3)          109.4705         0.450578   
      6. A(Cl  2,Ni  0,Cl  3)          109.4705         0.450578   
      7. A(Cl  1,Ni  0,Cl  4)          109.4705         0.450578   
      8. A(Cl  2,Ni  0,Cl  4)          109.4705         0.450578   
      9. A(Cl  3,Ni  0,Cl  4)          109.4726         0.450578   
     10. A(Cl  1,Ni  0,Cl  2)          109.4726         0.450578   
    -----------------------------------------------------------------

Number of atoms                         .... 5
Number of degrees of freedom            .... 10

         *************************************************************
         *                GEOMETRY OPTIMIZATION CYCLE   1            *
         *************************************************************
---------------------------------
CARTESIAN COORDINATES (ANGSTROEM)
---------------------------------
  Ni     0.000000   -0.000000    0.000000
  Cl    -0.000000   -1.989000   -1.406400
  Cl     0.000000    1.989000   -1.406400
  Cl    -1.989000   -0.000000    1.406400
  Cl     1.989000   -0.000000    1.406400

----------------------------
CARTESIAN COORDINATES (A.U.)
----------------------------
  NO LB      ZA    FRAG     MASS         X           Y           Z
   0 Ni   28.0000    0    58.700    0.000000   -0.000000    0.000000
   1 Cl   17.0000    0    35.453   -0.000000   -3.758665   -2.657711
   2 Cl   17.0000    0    35.453    0.000000    3.758665   -2.657711
   3 Cl   17.0000    0    35.453   -3.758665   -0.000000    2.657711
   4 Cl   17.0000    0    35.453    3.758665   -0.000000    2.657711

--------------------------------
INTERNAL COORDINATES (ANGSTROEM)
--------------------------------
 Ni     0   0   0     0.000000000000     0.00000000     0.00000000
 Cl     1   0   0     2.435997118225     0.00000000     0.00000000
 Cl     1   2   0     2.435997118225   109.47257984     0.00000000
 Cl     1   2   3     2.435997118225   109.47054104   119.99958383
 Cl     1   2   3     2.435997118225   109.47054104   240.00041617

---------------------------
INTERNAL COORDINATES (A.U.)
---------------------------
 Ni     0   0   0     0.000000000000     0.00000000     0.00000000
 Cl     1   0   0     4.603367416466     0.00000000     0.00000000
 Cl     1   2   0     4.603367416466   109.47257984     0.00000000
 Cl     1   2   3     4.603367416466   109.47054104   119.99958383
 Cl     1   2   3     4.603367416466   109.47054104   240.00041617

---------------------
BASIS SET INFORMATION
---------------------
There are 2 groups of distinct atoms

 Group   1 Type Ni  : 17s11p7d1f contracted to 6s4p4d1f pattern {842111/6311/4111/1}
 Group   2 Type Cl  : 14s9p3d1f contracted to 5s5p2d1f pattern {73211/51111/21/1}

Atom   0Ni   basis set group =>   1
Atom   1Cl   basis set group =>   2
Atom   2Cl   basis set group =>   2
Atom   3Cl   basis set group =>   2
Atom   4Cl   basis set group =>   2
---------------------------------
AUXILIARY/J BASIS SET INFORMATION
---------------------------------
There are 2 groups of distinct atoms

 Group   1 Type Ni  : 19s5p5d3f3g contracted to 8s5p5d2f3g pattern {121111111/11111/11111/21/111}
 Group   2 Type Cl  : 14s5p5d2f1g contracted to 8s4p3d1f1g pattern {71111111/2111/311/2/1}

Atom   0Ni   basis set group =>   1
Atom   1Cl   basis set group =>   2
Atom   2Cl   basis set group =>   2
Atom   3Cl   basis set group =>   2
Atom   4Cl   basis set group =>   2


           ************************************************************
           *        Program running with 4 parallel MPI-processes     *
           *              working on a common directory               *
           ************************************************************
------------------------------------------------------------------------------
                           ORCA GTO INTEGRAL CALCULATION
                           -- RI-GTO INTEGRALS CHOSEN --
------------------------------------------------------------------------------
------------------------------------------------------------------------------
                   ___                                                        
                  /   \      - P O W E R E D   B Y -                         
                 /     \                                                     
                 |  |  |   _    _      __       _____    __    __             
                 |  |  |  | |  | |    /  \     |  _  \  |  |  /  |          
                  \  \/   | |  | |   /    \    | | | |  |  | /  /          
                 / \  \   | |__| |  /  /\  \   | |_| |  |  |/  /          
                |  |  |   |  __  | /  /__\  \  |    /   |      \           
                |  |  |   | |  | | |   __   |  |    \   |  |\   \          
                \     /   | |  | | |  |  |  |  | |\  \  |  | \   \       
                 \___/    |_|  |_| |__|  |__|  |_| \__\ |__|  \__/        
                                                                              
                      - O R C A' S   B I G   F R I E N D -                    
                                      &                                       
                       - I N T E G R A L  F E E D E R -                       
                                                                              
 v1 FN, 2020, v2 2021                                                         
------------------------------------------------------------------------------


Reading SHARK input file NiCl4.SHARKINP.tmp ... ok
----------------------
SHARK INTEGRAL PACKAGE
----------------------

Number of atoms                             ...      5
Number of basis functions                   ...    193
Number of shells                            ...     67
Maximum angular momentum                    ...      3
Integral batch strategy                     ... SHARK/LIBINT Hybrid
RI-J (if used) integral strategy            ... SPLIT-RIJ (Revised 2003 algorithm where possible)
Printlevel                                  ...      1
Contraction scheme used                     ... SEGMENTED contraction
Coulomb Range Separation                    ... NOT USED
Exchange Range Separation                   ... NOT USED
Finite Nucleus Model                        ... NOT USED
Auxiliary Coulomb fitting basis             ... AVAILABLE
   # of basis functions in Aux-J            ...    293
   # of shells in Aux-J                     ...     91
   Maximum angular momentum in Aux-J        ...      4
Auxiliary J/K fitting basis                 ... NOT available
Auxiliary Correlation fitting basis         ... NOT available
Auxiliary 'external' fitting basis          ... NOT available
Integral threshold                          ...     2.500000e-11
Primitive cut-off                           ...     2.500000e-12
Primitive pair pre-selection threshold      ...     2.500000e-12

Calculating pre-screening integrals         ... done (  0.0 sec) Dimension = 67
Organizing shell pair data                  ... done (  0.0 sec)
Shell pair information
Total number of shell pairs                 ...      2278
Shell pairs after pre-screening             ...      1832
Total number of primitive shell pairs       ...     10643
Primitive shell pairs kept                  ...      5581
          la=0 lb=0:    241 shell pairs
          la=1 lb=0:    468 shell pairs
          la=1 lb=1:    240 shell pairs
          la=2 lb=0:    268 shell pairs
          la=2 lb=1:    260 shell pairs
          la=2 lb=2:     78 shell pairs
          la=3 lb=0:     98 shell pairs
          la=3 lb=1:    104 shell pairs
          la=3 lb=2:     60 shell pairs
          la=3 lb=3:     15 shell pairs

Calculating one electron integrals          ... done (  0.0 sec)
Calculating RI/J V-Matrix + Cholesky decomp.... done (  0.0 sec)
Calculating Nuclear repulsion               ... done (  0.0 sec) ENN=    644.279184177987 Eh

SHARK setup successfully completed in   0.1 seconds

Maximum memory used throughout the entire GTOINT-calculation: 19.3 MB


           ************************************************************
           *        Program running with 4 parallel MPI-processes     *
           *              working on a common directory               *
           ************************************************************
-------------------------------------------------------------------------------
                                 ORCA SCF
-------------------------------------------------------------------------------

------------
SCF SETTINGS
------------
Hamiltonian:
 Density Functional     Method          .... DFT(GTOs)
 Exchange Functional    Exchange        .... B88
   X-Alpha parameter    XAlpha          ....  0.666667
   Becke's b parameter  XBeta           ....  0.004200
 Correlation Functional Correlation     .... LYP
 LDA part of GGA corr.  LDAOpt          .... VWN-5
 Gradients option       PostSCFGGA      .... off
 Hybrid DFT is turned on
   Fraction HF Exchange ScalHFX         ....  0.200000
   Scaling of DF-GGA-X  ScalDFX         ....  0.720000
   Scaling of DF-GGA-C  ScalDFC         ....  0.810000
   Scaling of DF-LDA-C  ScalLDAC        ....  1.000000
   Perturbative correction              ....  0.000000
   Density functional embedding theory  .... OFF
   NL short-range parameter             ....  4.800000
 RI-approximation to the Coulomb term is turned on
   Number of AuxJ basis functions       .... 293
   RIJ-COSX (HFX calculated with COS-X)).... on


General Settings:
 Integral files         IntName         .... NiCl4
 Hartree-Fock type      HFTyp           .... RHF
 Total Charge           Charge          ....   -2
 Multiplicity           Mult            ....    1
 Number of Electrons    NEL             ....   98
 Basis Dimension        Dim             ....  193
 Nuclear Repulsion      ENuc            ....    644.2791841780 Eh

Convergence Acceleration:
 DIIS                   CNVDIIS         .... on
   Start iteration      DIISMaxIt       ....    12
   Startup error        DIISStart       ....  0.200000
   # of expansion vecs  DIISMaxEq       ....     5
   Bias factor          DIISBfac        ....   1.050
   Max. coefficient     DIISMaxC        ....  10.000
 Trust-Rad. Augm. Hess. CNVTRAH         .... auto
   Auto Start mean grad. ratio tolernc. ....  1.125000
   Auto Start start iteration           ....    20
   Auto Start num. interpolation iter.  ....    10
   Max. Number of Micro iterations      ....    16
   Max. Number of Macro iterations      .... Maxiter - #DIIS iter
   Number of Davidson start vectors     ....     2
   Converg. threshold I  (grad. norm)   ....   1.000e-05
   Converg. threshold II (energy diff.) ....   1.000e-08
   Grad. Scal. Fac. for Micro threshold ....   0.100
   Minimum threshold for Micro iter.    ....   0.010
   NR start threshold (gradient norm)   ....   0.001
   Initial trust radius                 ....   0.400
   Minimum AH scaling param. (alpha)    ....   1.000
   Maximum AH scaling param. (alpha)    .... 1000.000
   Orbital update algorithm             .... Taylor
   White noise on init. David. guess    .... on
   Maximum white noise                  ....   0.010
   Quad. conv. algorithm                .... NR
 SOSCF                  CNVSOSCF        .... off
 Level Shifting         CNVShift        .... on
   Level shift para.    LevelShift      ....    0.2500
   Turn off err/grad.   ShiftErr        ....    0.0010
 Zerner damping         CNVZerner       .... off
 Static damping         CNVDamp         .... on
   Fraction old density DampFac         ....    0.7000
   Max. Damping (<1)    DampMax         ....    0.9800
   Min. Damping (>=0)   DampMin         ....    0.0000
   Turn off err/grad.   DampErr         ....    0.1000
 Fernandez-Rico         CNVRico         .... off

SCF Procedure:
 Maximum # iterations   MaxIter         ....   125
 SCF integral mode      SCFMode         .... Direct
   Integral package                     .... SHARK and LIBINT hybrid scheme
 Reset frequency        DirectResetFreq ....    20
 Integral Threshold     Thresh          ....  2.500e-11 Eh
 Primitive CutOff       TCut            ....  2.500e-12 Eh

Convergence Tolerance:
 Convergence Check Mode ConvCheckMode   .... Total+1el-Energy
 Convergence forced     ConvForced      .... 0
 Energy Change          TolE            ....  1.000e-08 Eh
 1-El. energy change                    ....  1.000e-05 Eh
 DIIS Error             TolErr          ....  5.000e-07


Diagonalization of the overlap matrix:
Smallest eigenvalue                        ... 2.168e-02
Time for diagonalization                   ...    0.005 sec
Threshold for overlap eigenvalues          ... 1.000e-08
Number of eigenvalues below threshold      ... 0
Time for construction of square roots      ...    0.002 sec
Total time needed                          ...    0.007 sec

Time for model grid setup =    0.036 sec

------------------------------
INITIAL GUESS: MODEL POTENTIAL
------------------------------
Loading Hartree-Fock densities                     ... done
Calculating cut-offs                               ... done
Initializing the effective Hamiltonian             ... done
Setting up the integral package (SHARK)            ... done
Starting the Coulomb interaction                   ... done (   0.0 sec)
Reading the grid                                   ... done
Mapping shells                                     ... done
Starting the XC term evaluation                    ... done (   0.0 sec)
  promolecular density results
     # of electrons  =     95.999252424
     EX              =   -171.854479591
     EC              =     -4.139156679
     EX+EC           =   -175.993636270
Transforming the Hamiltonian                       ... done (   0.0 sec)
Diagonalizing the Hamiltonian                      ... done (   0.0 sec)
Back transforming the eigenvectors                 ... done (   0.0 sec)
Now organizing SCF variables                       ... done
                      ------------------
                      INITIAL GUESS DONE (   0.1 sec)
                      ------------------
-------------------
DFT GRID GENERATION
-------------------

General Integration Accuracy     IntAcc      ... 4.388
Radial Grid Type                 RadialGrid  ... OptM3 with GC (2021)
Angular Grid (max. ang.)         AngularGrid ... 4 (Lebedev-302)
Angular grid pruning method      GridPruning ... 4 (adaptive)
Weight generation scheme         WeightScheme... Becke
Basis function cutoff            BFCut       ... 1.0000e-11
Integration weight cutoff        WCut        ... 1.0000e-14
Angular grids for H and He will be reduced by one unit
Partially contracted basis set               ... off
Rotationally invariant grid construction     ... off

Total number of grid points                  ...    40740
Total number of batches                      ...      638
Average number of points per batch           ...       63
Average number of grid points per atom       ...     8148
Time for grid setup =    0.206 sec

--------------------
COSX GRID GENERATION
--------------------

GRIDX 1
-------
General Integration Accuracy     IntAcc      ... 3.816
Radial Grid Type                 RadialGrid  ... OptM3 with GC (2021)
Angular Grid (max. ang.)         AngularGrid ... 1 (Lebedev-50)
Angular grid pruning method      GridPruning ... 4 (adaptive)
Weight generation scheme         WeightScheme... Becke
Basis function cutoff            BFCut       ... 1.0000e-11
Integration weight cutoff        WCut        ... 1.0000e-14
Angular grids for H and He will be reduced by one unit
Partially contracted basis set               ... on
Rotationally invariant grid construction     ... off

Total number of grid points                  ...     4604
Total number of batches                      ...       75
Average number of points per batch           ...       61
Average number of grid points per atom       ...      921
UseSFitting                                  ... on

GRIDX 2
-------
General Integration Accuracy     IntAcc      ... 4.020
Radial Grid Type                 RadialGrid  ... OptM3 with GC (2021)
Angular Grid (max. ang.)         AngularGrid ... 2 (Lebedev-110)
Angular grid pruning method      GridPruning ... 4 (adaptive)
Weight generation scheme         WeightScheme... Becke
Basis function cutoff            BFCut       ... 1.0000e-11
Integration weight cutoff        WCut        ... 1.0000e-14
Angular grids for H and He will be reduced by one unit
Partially contracted basis set               ... on
Rotationally invariant grid construction     ... off

Total number of grid points                  ...    10600
Total number of batches                      ...      169
Average number of points per batch           ...       62
Average number of grid points per atom       ...     2120
UseSFitting                                  ... on

GRIDX 3
-------
General Integration Accuracy     IntAcc      ... 4.338
Radial Grid Type                 RadialGrid  ... OptM3 with GC (2021)
Angular Grid (max. ang.)         AngularGrid ... 3 (Lebedev-194)
Angular grid pruning method      GridPruning ... 4 (adaptive)
Weight generation scheme         WeightScheme... Becke
Basis function cutoff            BFCut       ... 1.0000e-11
Integration weight cutoff        WCut        ... 1.0000e-14
Angular grids for H and He will be reduced by one unit
Partially contracted basis set               ... on
Rotationally invariant grid construction     ... off

Total number of grid points                  ...    26238
Total number of batches                      ...      412
Average number of points per batch           ...       63
Average number of grid points per atom       ...     5248
UseSFitting                                  ... on

Time for X-Grid setup             =    0.142 sec

--------------
SCF ITERATIONS
--------------
ITER       Energy         Delta-E        Max-DP      RMS-DP      [F,P]     Damp
               ***  Starting incremental Fock matrix formation  ***
  0  -3348.9596121182   0.000000000000 0.06522813  0.00152100  0.1098661 0.7000
  1  -3349.0073472866  -0.047735168345 0.04285950  0.00118084  0.0663951 0.7000
                               ***Turning on DIIS***
  2  -3349.0299465009  -0.022599214289 0.07555150  0.00221042  0.0439564 0.0000
  3  -3349.0636169079  -0.033670407051 0.03578652  0.00079872  0.0289224 0.0000
  4  -3349.0716055064  -0.007988598500 0.00792240  0.00021585  0.0078027 0.0000
  5  -3349.0717670559  -0.000161549524 0.00370037  0.00006144  0.0114598 0.0000
  6  -3349.0718959520  -0.000128896109 0.00123801  0.00003078  0.0028090 0.0000
  7  -3349.0719153987  -0.000019446674 0.00072408  0.00001667  0.0010232 0.0000
  8  -3349.0719214908  -0.000006092046 0.00116448  0.00002671  0.0003101 0.0000
               *** Restarting incremental Fock matrix formation ***
                                   *** Resetting DIIS ***
  9  -3349.0719014146   0.000020076198 0.00147311  0.00001910  0.0006875 0.0000
 10  -3349.0718902344   0.000011180132 0.00048173  0.00000756  0.0032765 0.0000
 11  -3349.0718994527  -0.000009218224 0.00030837  0.00000391  0.0013252 0.0000
 12  -3349.0719014437  -0.000001991067 0.00058991  0.00000688  0.0006418 0.0000
 13  -3349.0719021082  -0.000000664509 0.00010739  0.00000185  0.0002984 0.0000
 14  -3349.0719021977  -0.000000089446 0.00001239  0.00000051  0.0000679 0.0000
 15  -3349.0719022094  -0.000000011716 0.00002054  0.00000033  0.0000345 0.0000
 16  -3349.0719022062   0.000000003157 0.00000476  0.00000011  0.0000111 0.0000
 17  -3349.0719021945   0.000000011759 0.00000059  0.00000002  0.0000010 0.0000
                 **** Energy Check signals convergence ****

               *****************************************************
               *                     SUCCESS                       *
               *           SCF CONVERGED AFTER  18 CYCLES          *
               *****************************************************

Old exchange energy                            =    -34.443215750 Eh
New exchange energy                            =    -34.443142598 Eh
Exchange energy change after final integration =      0.000073153 Eh
Total energy after final integration           =  -3349.071829045 Eh
Final COS-X integration done in                =     1.135 sec

----------------
TOTAL SCF ENERGY
----------------

Total Energy       :        -3349.07182905 Eh          -91132.87757 eV

Components:
Nuclear Repulsion  :          644.27918418 Eh           17531.72790 eV
Electronic Energy  :        -3993.35101322 Eh         -108664.60547 eV
One Electron Energy:        -5959.37487113 Eh         -162162.83444 eV
Two Electron Energy:         1966.02385791 Eh           53498.22897 eV
Max COSX asymmetry :            0.00000483 Eh               0.00013 eV

Virial components:
Potential Energy   :        -6693.46468192 Eh         -182138.43373 eV
Kinetic Energy     :         3344.39285288 Eh           91005.55616 eV
Virial Ratio       :            2.00139905


DFT components:
N(Alpha)           :       48.999959990276 electrons
N(Beta)            :       48.999959990276 electrons
N(Total)           :       97.999919980551 electrons
E(X)               :     -137.046869719555 Eh       
E(C)               :       -4.905614192150 Eh       
E(XC)              :     -141.952483911705 Eh       
DFET-embed. en.    :        0.000000000000 Eh       

---------------
SCF CONVERGENCE
---------------

  Last Energy change         ...   -3.3501e-09  Tolerance :   1.0000e-08
  Last MAX-Density change    ...    0.0000e+00  Tolerance :   1.0000e-07
  Last RMS-Density change    ...    0.0000e+00  Tolerance :   5.0000e-09
  Last DIIS Error            ...    4.7510e-07  Tolerance :   5.0000e-07

             **** THE GBW FILE WAS UPDATED (NiCl4.gbw) ****
             **** DENSITY NiCl4.scfp WAS UPDATED ****
             **** ENERGY FILE WAS UPDATED (NiCl4.en.tmp) ****
             **** THE GBW FILE WAS UPDATED (NiCl4.gbw) ****
             **** DENSITY NiCl4.scfp WAS UPDATED ****
----------------
ORBITAL ENERGIES
----------------

  NO   OCC          E(Eh)            E(eV) 
   0   2.0000    -299.576684     -8151.8960 
   1   2.0000    -101.161433     -2752.7425 
   2   2.0000    -101.161429     -2752.7424 
   3   2.0000    -101.161429     -2752.7424 
   4   2.0000    -101.161429     -2752.7424 
   5   2.0000     -35.494540      -965.8555 
   6   2.0000     -30.933500      -841.7433 
   7   2.0000     -30.933500      -841.7433 
   8   2.0000     -30.890032      -840.5605 
   9   2.0000      -9.092973      -247.4324 
  10   2.0000      -9.092959      -247.4320 
  11   2.0000      -9.092959      -247.4320 
  12   2.0000      -9.092959      -247.4320 
  13   2.0000      -6.851107      -186.4281 
  14   2.0000      -6.851106      -186.4281 
  15   2.0000      -6.851106      -186.4281 
  16   2.0000      -6.851100      -186.4279 
  17   2.0000      -6.847937      -186.3418 
  18   2.0000      -6.847937      -186.3418 
  19   2.0000      -6.847935      -186.3418 
  20   2.0000      -6.847934      -186.3418 
  21   2.0000      -6.847712      -186.3357 
  22   2.0000      -6.847710      -186.3357 
  23   2.0000      -6.847710      -186.3357 
  24   2.0000      -6.847710      -186.3357 
  25   2.0000      -3.738238      -101.7226 
  26   2.0000      -2.348538       -63.9070 
  27   2.0000      -2.348538       -63.9070 
  28   2.0000      -2.278727       -62.0073 
  29   2.0000      -0.449730       -12.2378 
  30   2.0000      -0.444415       -12.0931 
  31   2.0000      -0.444415       -12.0931 
  32   2.0000      -0.444276       -12.0894 
  33   2.0000      -0.052059        -1.4166 
  34   2.0000      -0.043841        -1.1930 
  35   2.0000      -0.030576        -0.8320 
  36   2.0000      -0.030576        -0.8320 
  37   2.0000      -0.018642        -0.5073 
  38   2.0000      -0.005182        -0.1410 
  39   2.0000       0.002873         0.0782 
  40   2.0000       0.002873         0.0782 
  41   2.0000       0.006926         0.1885 
  42   2.0000       0.023349         0.6354 
  43   2.0000       0.025542         0.6950 
  44   2.0000       0.025733         0.7002 
  45   2.0000       0.025733         0.7002 
  46   2.0000       0.049327         1.3423 
  47   2.0000       0.055881         1.5206 
  48   2.0000       0.055881         1.5206 
  49   0.0000       0.127918         3.4808 
  50   0.0000       0.309201         8.4138 
  51   0.0000       0.415156        11.2970 
  52   0.0000       0.449164        12.2224 
  53   0.0000       0.449164        12.2224 
  54   0.0000       0.455619        12.3980 
  55   0.0000       0.542149        14.7526 
  56   0.0000       0.542149        14.7526 
  57   0.0000       0.545172        14.8349 
  58   0.0000       0.550050        14.9676 
  59   0.0000       0.557377        15.1670 
  60   0.0000       0.618403        16.8276 
  61   0.0000       0.643329        17.5059 
  62   0.0000       0.643329        17.5059 
  63   0.0000       0.643415        17.5082 
  64   0.0000       0.645637        17.5687 
  65   0.0000       0.645855        17.5746 
  66   0.0000       0.691561        18.8183 
  67   0.0000       0.691561        18.8183 
  68   0.0000       0.693536        18.8721 
  69   0.0000       0.698518        19.0076 
  70   0.0000       0.698669        19.0117 
  71   0.0000       0.698669        19.0117 
  72   0.0000       0.769379        20.9359 
  73   0.0000       0.769379        20.9359 
  74   0.0000       0.770309        20.9612 
  75   0.0000       0.770385        20.9632 
  76   0.0000       0.770385        20.9632 
  77   0.0000       0.771061        20.9816 
  78   0.0000       0.772160        21.0115 
  79   0.0000       0.773485        21.0476 
  80   0.0000       0.798937        21.7402 
  81   0.0000       0.799763        21.7627 
  82   0.0000       0.799763        21.7627 
  83   0.0000       0.842477        22.9250 
  84   0.0000       0.842477        22.9250 
  85   0.0000       0.845133        22.9973 
  86   0.0000       0.923739        25.1362 
  87   0.0000       0.929718        25.2989 
  88   0.0000       0.931022        25.3344 
  89   0.0000       0.931022        25.3344 
  90   0.0000       1.065813        29.0022 
  91   0.0000       1.068382        29.0722 
  92   0.0000       1.157117        31.4868 
  93   0.0000       1.157117        31.4868 
  94   0.0000       1.158723        31.5305 
  95   0.0000       1.279167        34.8079 
  96   0.0000       1.389198        37.8020 
  97   0.0000       1.413742        38.4699 
  98   0.0000       1.528095        41.5816 
  99   0.0000       1.532554        41.7029 
 100   0.0000       1.532554        41.7029 
 101   0.0000       2.062593        56.1260 
 102   0.0000       2.062593        56.1260 
 103   0.0000       2.065017        56.1920 
 104   0.0000       2.070408        56.3387 
 105   0.0000       2.070409        56.3387 
 106   0.0000       2.070840        56.3504 
 107   0.0000       2.072681        56.4005 
 108   0.0000       2.073171        56.4139 
 109   0.0000       2.075686        56.4823 
 110   0.0000       2.077697        56.5370 
 111   0.0000       2.077698        56.5370 
 112   0.0000       2.165473        58.9255 
 113   0.0000       2.167585        58.9830 
 114   0.0000       2.167585        58.9830 
 115   0.0000       2.223271        60.4983 
 116   0.0000       2.231956        60.7346 
 117   0.0000       2.231956        60.7346 
 118   0.0000       2.233131        60.7666 
 119   0.0000       2.287358        62.2422 
 120   0.0000       2.288668        62.2778 
 121   0.0000       2.394000        65.1441 
 122   0.0000       2.394000        65.1441 
 123   0.0000       2.406622        65.4875 
 124   0.0000       2.412298        65.6420 
 125   0.0000       2.412298        65.6420 
 126   0.0000       2.412486        65.6471 
 127   0.0000       2.422859        65.9294 
 128   0.0000       2.422859        65.9294 
 129   0.0000       2.423050        65.9345 
 130   0.0000       2.431194        66.1562 
 131   0.0000       2.431374        66.1611 
 132   0.0000       2.431528        66.1652 
 133   0.0000       2.431528        66.1652 
 134   0.0000       2.431560        66.1661 
 135   0.0000       2.431690        66.1696 
 136   0.0000       2.431690        66.1696 
 137   0.0000       2.431977        66.1775 
 138   0.0000       2.440348        66.4052 
 139   0.0000       2.442028        66.4510 
 140   0.0000       2.444145        66.5086 
 141   0.0000       2.444146        66.5086 
 142   0.0000       2.444408        66.5157 
 143   0.0000       2.480937        67.5097 
 144   0.0000       2.518980        68.5449 
 145   0.0000       2.518980        68.5449 
 146   0.0000       2.519761        68.5662 
 147   0.0000       2.524650        68.6992 
 148   0.0000       2.531554        68.8871 
 149   0.0000       2.532868        68.9228 
 150   0.0000       2.537938        69.0608 
 151   0.0000       2.538395        69.0732 
 152   0.0000       2.538395        69.0733 
 153   0.0000       2.572552        70.0027 
 154   0.0000       2.574726        70.0618 
 155   0.0000       2.582611        70.2764 
 156   0.0000       2.582611        70.2764 
 157   0.0000       2.583229        70.2932 
 158   0.0000       2.676946        72.8434 
 159   0.0000       2.676946        72.8434 
 160   0.0000       2.694033        73.3084 
 161   0.0000       2.861915        77.8767 
 162   0.0000       2.861915        77.8767 
 163   0.0000       2.870474        78.1096 
 164   0.0000       3.716807       101.1395 
 165   0.0000       4.488396       122.1355 
 166   0.0000       4.545010       123.6760 
 167   0.0000       4.672086       127.1339 
 168   0.0000       4.697514       127.8258 
 169   0.0000       4.697514       127.8258 
 170   0.0000       5.782497       157.3497 
 171   0.0000       5.782497       157.3497 
 172   0.0000       5.811480       158.1384 
 173   0.0000       5.834620       158.7681 
 174   0.0000       5.838928       158.8853 
 175   0.0000       5.838928       158.8853 
 176   0.0000       5.853381       159.2786 
 177   0.0000      11.004847       299.4571 
 178   0.0000      11.004847       299.4571 
 179   0.0000      11.004888       299.4582 
 180   0.0000      11.012454       299.6641 
 181   0.0000      11.013655       299.6968 
 182   0.0000      11.017099       299.7905 
 183   0.0000      11.041660       300.4588 
 184   0.0000      11.041660       300.4589 
 185   0.0000      11.042206       300.4737 
 186   0.0000      11.119832       302.5860 
 187   0.0000      11.120363       302.6005 
 188   0.0000      11.120363       302.6005 
 189   0.0000      24.644130       670.6009 
 190   0.0000      24.644130       670.6009 
 191   0.0000      24.644213       670.6031 
 192   0.0000      24.947373       678.8525 

                    ********************************
                    * MULLIKEN POPULATION ANALYSIS *
                    ********************************

-----------------------
MULLIKEN ATOMIC CHARGES
-----------------------
   0 Ni:    0.696157
   1 Cl:   -0.674039
   2 Cl:   -0.674039
   3 Cl:   -0.674039
   4 Cl:   -0.674039
Sum of atomic charges:   -2.0000000

--------------------------------
MULLIKEN REDUCED ORBITAL CHARGES
--------------------------------
  0 Nis       :     6.377012  s :     6.377012
      pz      :     4.095350  p :    12.361589
      px      :     4.133120
      py      :     4.133120
      dz2     :     1.993156  d :     8.565002
      dxz     :     2.002344
      dyz     :     2.002344
      dx2y2   :     0.568521
      dxy     :     1.998637
      f0      :     0.000076  f :     0.000240
      f+1     :     0.000049
      f-1     :     0.000049
      f+2     :     0.000027
      f-2     :     0.000009
      f+3     :     0.000015
      f-3     :     0.000015
  1 Cls       :     5.957443  s :     5.957443
      pz      :     3.830422  p :    11.705466
      px      :     3.988766
      py      :     3.886278
      dz2     :     0.001673  d :     0.010513
      dxz     :     0.000980
      dyz     :     0.003522
      dx2y2   :     0.002477
      dxy     :     0.001861
      f0      :     0.000062  f :     0.000617
      f+1     :     0.000013
      f-1     :     0.000167
      f+2     :     0.000148
      f-2     :     0.000087
      f+3     :     0.000069
      f-3     :     0.000071
  2 Cls       :     5.957443  s :     5.957443
      pz      :     3.830423  p :    11.705466
      px      :     3.988766
      py      :     3.886278
      dz2     :     0.001673  d :     0.010513
      dxz     :     0.000980
      dyz     :     0.003522
      dx2y2   :     0.002477
      dxy     :     0.001861
      f0      :     0.000062  f :     0.000617
      f+1     :     0.000013
      f-1     :     0.000167
      f+2     :     0.000148
      f-2     :     0.000087
      f+3     :     0.000069
      f-3     :     0.000071
  3 Cls       :     5.957443  s :     5.957443
      pz      :     3.830422  p :    11.705466
      px      :     3.886278
      py      :     3.988766
      dz2     :     0.001673  d :     0.010513
      dxz     :     0.003522
      dyz     :     0.000980
      dx2y2   :     0.002477
      dxy     :     0.001861
      f0      :     0.000062  f :     0.000617
      f+1     :     0.000167
      f-1     :     0.000013
      f+2     :     0.000148
      f-2     :     0.000087
      f+3     :     0.000071
      f-3     :     0.000069
  4 Cls       :     5.957443  s :     5.957443
      pz      :     3.830422  p :    11.705467
      px      :     3.886278
      py      :     3.988766
      dz2     :     0.001673  d :     0.010513
      dxz     :     0.003522
      dyz     :     0.000980
      dx2y2   :     0.002477
      dxy     :     0.001861
      f0      :     0.000062  f :     0.000617
      f+1     :     0.000167
      f-1     :     0.000013
      f+2     :     0.000148
      f-2     :     0.000087
      f+3     :     0.000071
      f-3     :     0.000069


                     *******************************
                     * LOEWDIN POPULATION ANALYSIS *
                     *******************************

----------------------
LOEWDIN ATOMIC CHARGES
----------------------
   0 Ni:   -0.517147
   1 Cl:   -0.370713
   2 Cl:   -0.370713
   3 Cl:   -0.370713
   4 Cl:   -0.370713

-------------------------------
LOEWDIN REDUCED ORBITAL CHARGES
-------------------------------
  0 Nis       :     6.460970  s :     6.460970
      pz      :     4.191105  p :    12.672686
      px      :     4.240791
      py      :     4.240791
      dz2     :     2.119879  d :     9.383214
      dxz     :     2.189966
      dyz     :     2.189966
      dx2y2   :     0.756104
      dxy     :     2.127298
      f0      :     0.000080  f :     0.000277
      f+1     :     0.000054
      f-1     :     0.000054
      f+2     :     0.000032
      f-2     :     0.000012
      f+3     :     0.000022
      f-3     :     0.000022
  1 Cls       :     5.807628  s :     5.807628
      pz      :     3.780297  p :    11.544357
      px      :     3.936492
      py      :     3.827568
      dz2     :     0.002664  d :     0.017485
      dxz     :     0.001458
      dyz     :     0.005592
      dx2y2   :     0.004365
      dxy     :     0.003406
      f0      :     0.000162  f :     0.001243
      f+1     :     0.000023
      f-1     :     0.000247
      f+2     :     0.000306
      f-2     :     0.000177
      f+3     :     0.000160
      f-3     :     0.000169
  2 Cls       :     5.807628  s :     5.807628
      pz      :     3.780297  p :    11.544358
      px      :     3.936492
      py      :     3.827568
      dz2     :     0.002664  d :     0.017485
      dxz     :     0.001458
      dyz     :     0.005592
      dx2y2   :     0.004365
      dxy     :     0.003406
      f0      :     0.000162  f :     0.001243
      f+1     :     0.000023
      f-1     :     0.000247
      f+2     :     0.000306
      f-2     :     0.000177
      f+3     :     0.000160
      f-3     :     0.000169
  3 Cls       :     5.807628  s :     5.807628
      pz      :     3.780297  p :    11.544357
      px      :     3.827568
      py      :     3.936492
      dz2     :     0.002664  d :     0.017485
      dxz     :     0.005592
      dyz     :     0.001458
      dx2y2   :     0.004365
      dxy     :     0.003406
      f0      :     0.000162  f :     0.001243
      f+1     :     0.000247
      f-1     :     0.000023
      f+2     :     0.000306
      f-2     :     0.000177
      f+3     :     0.000169
      f-3     :     0.000160
  4 Cls       :     5.807628  s :     5.807628
      pz      :     3.780297  p :    11.544358
      px      :     3.827568
      py      :     3.936492
      dz2     :     0.002664  d :     0.017485
      dxz     :     0.005592
      dyz     :     0.001458
      dx2y2   :     0.004365
      dxy     :     0.003406
      f0      :     0.000162  f :     0.001243
      f+1     :     0.000247
      f-1     :     0.000023
      f+2     :     0.000306
      f-2     :     0.000177
      f+3     :     0.000169
      f-3     :     0.000160


                      *****************************
                      * MAYER POPULATION ANALYSIS *
                      *****************************

  NA   - Mulliken gross atomic population
  ZA   - Total nuclear charge
  QA   - Mulliken gross atomic charge
  VA   - Mayer's total valence
  BVA  - Mayer's bonded valence
  FA   - Mayer's free valence

  ATOM       NA         ZA         QA         VA         BVA        FA
  0 Ni    27.3038    28.0000     0.6962     2.1688     2.1688     0.0000
  1 Cl    17.6740    17.0000    -0.6740     0.5900     0.5900     0.0000
  2 Cl    17.6740    17.0000    -0.6740     0.5900     0.5900    -0.0000
  3 Cl    17.6740    17.0000    -0.6740     0.5900     0.5900    -0.0000
  4 Cl    17.6740    17.0000    -0.6740     0.5900     0.5900    -0.0000

  Mayer bond orders larger than 0.100000
B(  0-Ni,  1-Cl) :   0.5422 B(  0-Ni,  2-Cl) :   0.5422 B(  0-Ni,  3-Cl) :   0.5422 
B(  0-Ni,  4-Cl) :   0.5422 

-------
TIMINGS
-------

Total SCF time: 0 days 0 hours 0 min 9 sec 

Total time                  ....       9.855 sec
Sum of individual times     ....       9.747 sec  ( 98.9%)

Fock matrix formation       ....       9.159 sec  ( 92.9%)
  Split-RI-J                ....       0.770 sec  (  8.4% of F)
  Chain of spheres X        ....       7.309 sec  ( 79.8% of F)
  XC integration            ....       1.045 sec  ( 11.4% of F)
    Basis function eval.    ....       0.350 sec  ( 33.5% of XC)
    Density eval.           ....       0.274 sec  ( 26.3% of XC)
    XC-Functional eval.     ....       0.068 sec  (  6.6% of XC)
    XC-Potential eval.      ....       0.274 sec  ( 26.3% of XC)
Diagonalization             ....       0.091 sec  (  0.9%)
Density matrix formation    ....       0.004 sec  (  0.0%)
Population analysis         ....       0.004 sec  (  0.0%)
Initial guess               ....       0.048 sec  (  0.5%)
Orbital Transformation      ....       0.000 sec  (  0.0%)
Orbital Orthonormalization  ....       0.000 sec  (  0.0%)
DIIS solution               ....       0.058 sec  (  0.6%)
Grid generation             ....       0.384 sec  (  3.9%)

Maximum memory used throughout the entire SCF-calculation: 66.6 MB

-------------------------   --------------------
FINAL SINGLE POINT ENERGY     -3349.071829045236
-------------------------   --------------------



           ************************************************************
           *        Program running with 4 parallel MPI-processes     *
           *              working on a common directory               *
           ************************************************************
------------------------------------------------------------------------------
                         ORCA SCF GRADIENT CALCULATION
------------------------------------------------------------------------------

 ... reading COSX grid (gridx3)
Gradient of the Kohn-Sham DFT energy:
Kohn-Sham wavefunction type      ... RKS
Hartree-Fock exchange scaling    ...    0.200
Number of operators              ...    1
Number of atoms                  ...    5
Basis set dimensions             ...  193
Integral neglect threshold       ... 2.5e-11
Integral primitive cutoff        ... 2.5e-12
SHARK Integral package           ... ON

Nuc. rep. gradient       (SHARK) ... done (  0.0 sec)
HCore & Overlap gradient (SHARK) ... done (  0.0 sec)
RI-J gradient            (SHARK) ... done (  0.3 sec)
COSX-gradient                    ... done (  1.3 sec)
Exchange-correlation gradient    ... done

------------------
CARTESIAN GRADIENT
------------------

   1   Ni  :    0.000000327   -0.000000120    0.000000101
   2   Cl  :    0.000000052   -0.003791206   -0.011314914
   3   Cl  :    0.000000064    0.003790937   -0.011314702
   4   Cl  :   -0.003791134   -0.000000009    0.011314751
   5   Cl  :    0.003791163    0.000000109    0.011314741

Difference to translation invariance:
           :    0.0000004722   -0.0000002879   -0.0000000226

Difference to rotation invariance:
           :   -0.0000001831   -0.0000001915    0.0000003954

Norm of the cartesian gradient     ...    0.0238660168
RMS gradient                       ...    0.0061621790
MAX gradient                       ...    0.0113149138

-------
TIMINGS
-------

Total SCF gradient time            ...        1.954 sec

One electron gradient       ....       0.015 sec  (  0.8%)
RI-J Coulomb gradient       ....       0.266 sec  ( 13.6%)
COSX gradient               ....       1.258 sec  ( 64.4%)
XC gradient                 ....       0.276 sec  ( 14.1%)

Maximum memory used throughout the entire SCFGRAD-calculation: 40.3 MB
------------------------------------------------------------------------------
                         ORCA GEOMETRY RELAXATION STEP
------------------------------------------------------------------------------

Reading the OPT-File                    .... done
Getting information on internals        .... done
Copying old internal coords+grads       .... done
Making the new internal coordinates     .... (new redundants).... done
Validating the new internal coordinates .... (new redundants).... done
Calculating the B-matrix                .... done
Calculating the G,G- and P matrices     .... done
Transforming gradient to internals      .... done
Projecting the internal gradient        .... done
Number of atoms                         ....   5
Number of internal coordinates          ....  10
Current Energy                          .... -3349.071829045 Eh
Current gradient norm                   ....     0.023866017 Eh/bohr
Maximum allowed component of the step   ....  0.300
Current trust radius                    ....  0.300
Evaluating the initial hessian          ....  (Almloef) done
Projecting the Hessian                  .... done
Forming the augmented Hessian           .... done
Diagonalizing the augmented Hessian     .... done
Last element of RFO vector              ....  0.994699756
Lowest eigenvalues of augmented Hessian:
 -0.004289455  0.304114869  0.304114869  0.304114869  0.305292133
Length of the computed step             ....  0.103370038
The final length of the internal step   ....  0.103370038
Converting the step to cartesian space:
 Initial RMS(Int)=    0.0326884763
Transforming coordinates:
 Iter   0:  RMS(Cart)=    0.0587875834 RMS(Int)=    0.0322438414
 Iter   1:  RMS(Cart)=    0.0006892792 RMS(Int)=    0.0008340983
 Iter   2:  RMS(Cart)=    0.0000167108 RMS(Int)=    0.0000082108
 Iter   3:  RMS(Cart)=    0.0000003953 RMS(Int)=    0.0000004833
 Iter   4:  RMS(Cart)=    0.0000000095 RMS(Int)=    0.0000000044
done
Storing new coordinates                 .... done

                                .--------------------.
          ----------------------|Geometry convergence|-------------------------
          Item                value                   Tolerance       Converged
          ---------------------------------------------------------------------
          RMS gradient        0.0133230796            0.0001000000      NO
          MAX gradient        0.0216355726            0.0003000000      NO
          RMS step            0.0326884763            0.0020000000      NO
          MAX step            0.0475645463            0.0040000000      NO
          ........................................................
          Max(Bonds)      0.0165      Max(Angles)    2.73
          Max(Dihed)        0.00      Max(Improp)    0.00
          ---------------------------------------------------------------------

The optimization has not yet converged - more geometry cycles are needed


    ---------------------------------------------------------------------------
                         Redundant Internal Coordinates
                            (Angstroem and degrees)

        Definition                    Value    dE/dq     Step     New-Value
    ----------------------------------------------------------------------------
     1. B(Cl  1,Ni  0)                2.4360  0.009628 -0.0165    2.4195   
     2. B(Cl  2,Ni  0)                2.4360  0.009628 -0.0165    2.4195   
     3. B(Cl  3,Ni  0)                2.4360  0.009628 -0.0165    2.4195   
     4. B(Cl  4,Ni  0)                2.4360  0.009628 -0.0165    2.4195   
     5. A(Cl  1,Ni  0,Cl  3)          109.47  0.010818   -1.36    108.11   
     6. A(Cl  2,Ni  0,Cl  3)          109.47  0.010817   -1.36    108.11   
     7. A(Cl  1,Ni  0,Cl  4)          109.47  0.010818   -1.36    108.11   
     8. A(Cl  2,Ni  0,Cl  4)          109.47  0.010817   -1.36    108.11   
     9. A(Cl  3,Ni  0,Cl  4)          109.47 -0.021635    2.73    112.20   
    10. A(Cl  1,Ni  0,Cl  2)          109.47 -0.021636    2.73    112.20   
    ----------------------------------------------------------------------------

         *************************************************************
         *                GEOMETRY OPTIMIZATION CYCLE   2            *
         *************************************************************
---------------------------------
CARTESIAN COORDINATES (ANGSTROEM)
---------------------------------
  Ni    -0.000000    0.000001   -0.000000
  Cl     0.000000   -2.008308   -1.349284
  Cl    -0.000000    2.008308   -1.349285
  Cl    -2.008307   -0.000000    1.349285
  Cl     2.008307   -0.000001    1.349284

----------------------------
CARTESIAN COORDINATES (A.U.)
----------------------------
  NO LB      ZA    FRAG     MASS         X           Y           Z
   0 Ni   28.0000    0    58.700   -0.000001    0.000001   -0.000001
   1 Cl   17.0000    0    35.453    0.000001   -3.795152   -2.549777
   2 Cl   17.0000    0    35.453   -0.000000    3.795153   -2.549779
   3 Cl   17.0000    0    35.453   -3.795151   -0.000001    2.549779
   4 Cl   17.0000    0    35.453    3.795151   -0.000002    2.549778

--------------------------------
INTERNAL COORDINATES (ANGSTROEM)
--------------------------------
 Ni     0   0   0     0.000000000000     0.00000000     0.00000000
 Cl     1   0   0     2.419476791356     0.00000000     0.00000000
 Cl     1   2   0     2.419477216168   112.20954720     0.00000000
 Cl     1   2   3     2.419476831075   108.11965968   119.14742239
 Cl     1   2   3     2.419477065010   108.11960737   240.85262231

---------------------------
INTERNAL COORDINATES (A.U.)
---------------------------
 Ni     0   0   0     0.000000000000     0.00000000     0.00000000
 Cl     1   0   0     4.572148523041     0.00000000     0.00000000
 Cl     1   2   0     4.572149325820   112.20954720     0.00000000
 Cl     1   2   3     4.572148598100   108.11965968   119.14742239
 Cl     1   2   3     4.572149040173   108.11960737   240.85262231



           ************************************************************
           *        Program running with 4 parallel MPI-processes     *
           *              working on a common directory               *
           ************************************************************
------------------------------------------------------------------------------
                   ___                                                        
                  /   \      - P O W E R E D   B Y -                         
                 /     \                                                     
                 |  |  |   _    _      __       _____    __    __             
                 |  |  |  | |  | |    /  \     |  _  \  |  |  /  |          
                  \  \/   | |  | |   /    \    | | | |  |  | /  /          
                 / \  \   | |__| |  /  /\  \   | |_| |  |  |/  /          
                |  |  |   |  __  | /  /__\  \  |    /   |      \           
                |  |  |   | |  | | |   __   |  |    \   |  |\   \          
                \     /   | |  | | |  |  |  |  | |\  \  |  | \   \       
                 \___/    |_|  |_| |__|  |__|  |_| \__\ |__|  \__/        
                                                                              
                      - O R C A' S   B I G   F R I E N D -                    
                                      &                                       
                       - I N T E G R A L  F E E D E R -                       
                                                                              
 v1 FN, 2020, v2 2021                                                         
------------------------------------------------------------------------------


Reading SHARK input file NiCl4.SHARKINP.tmp ... ok
----------------------
SHARK INTEGRAL PACKAGE
----------------------

Number of atoms                             ...      5
Number of basis functions                   ...    193
Number of shells                            ...     67
Maximum angular momentum                    ...      3
Integral batch strategy                     ... SHARK/LIBINT Hybrid
RI-J (if used) integral strategy            ... SPLIT-RIJ (Revised 2003 algorithm where possible)
Printlevel                                  ...      1
Contraction scheme used                     ... SEGMENTED contraction
Coulomb Range Separation                    ... NOT USED
Exchange Range Separation                   ... NOT USED
Finite Nucleus Model                        ... NOT USED
Auxiliary Coulomb fitting basis             ... AVAILABLE
   # of basis functions in Aux-J            ...    293
   # of shells in Aux-J                     ...     91
   Maximum angular momentum in Aux-J        ...      4
Auxiliary J/K fitting basis                 ... NOT available
Auxiliary Correlation fitting basis         ... NOT available
Auxiliary 'external' fitting basis          ... NOT available
Integral threshold                          ...     2.500000e-11
Primitive cut-off                           ...     2.500000e-12
Primitive pair pre-selection threshold      ...     2.500000e-12

Calculating pre-screening integrals         ... done (  0.0 sec) Dimension = 67
Organizing shell pair data                  ... done (  0.0 sec)
Shell pair information
Total number of shell pairs                 ...      2278
Shell pairs after pre-screening             ...      1844
Total number of primitive shell pairs       ...     10643
Primitive shell pairs kept                  ...      5629
          la=0 lb=0:    249 shell pairs
          la=1 lb=0:    472 shell pairs
          la=1 lb=1:    240 shell pairs
          la=2 lb=0:    268 shell pairs
          la=2 lb=1:    260 shell pairs
          la=2 lb=2:     78 shell pairs
          la=3 lb=0:     98 shell pairs
          la=3 lb=1:    104 shell pairs
          la=3 lb=2:     60 shell pairs
          la=3 lb=3:     15 shell pairs

Calculating one electron integrals          ... done (  0.0 sec)
Calculating RI/J V-Matrix + Cholesky decomp.... done (  0.0 sec)
Calculating Nuclear repulsion               ... done (  0.0 sec) ENN=    648.726514916305 Eh

SHARK setup successfully completed in   0.1 seconds

Maximum memory used throughout the entire GTOINT-calculation: 19.3 MB


           ************************************************************
           *        Program running with 4 parallel MPI-processes     *
           *              working on a common directory               *
           ************************************************************

Diagonalization of the overlap matrix:
Smallest eigenvalue                        ... 2.079e-02
Time for diagonalization                   ...    0.003 sec
Threshold for overlap eigenvalues          ... 1.000e-08
Number of eigenvalues below threshold      ... 0
Time for construction of square roots      ...    0.001 sec
Total time needed                          ...    0.005 sec

-------------------
DFT GRID GENERATION
-------------------

General Integration Accuracy     IntAcc      ... 4.388
Radial Grid Type                 RadialGrid  ... OptM3 with GC (2021)
Angular Grid (max. ang.)         AngularGrid ... 4 (Lebedev-302)
Angular grid pruning method      GridPruning ... 4 (adaptive)
Weight generation scheme         WeightScheme... Becke
Basis function cutoff            BFCut       ... 1.0000e-11
Integration weight cutoff        WCut        ... 1.0000e-14
Angular grids for H and He will be reduced by one unit
Partially contracted basis set               ... off
Rotationally invariant grid construction     ... off

Total number of grid points                  ...    40748
Total number of batches                      ...      638
Average number of points per batch           ...       63
Average number of grid points per atom       ...     8150
Time for grid setup =    0.209 sec

--------------------
COSX GRID GENERATION
--------------------

GRIDX 1
-------
General Integration Accuracy     IntAcc      ... 3.816
Radial Grid Type                 RadialGrid  ... OptM3 with GC (2021)
Angular Grid (max. ang.)         AngularGrid ... 1 (Lebedev-50)
Angular grid pruning method      GridPruning ... 4 (adaptive)
Weight generation scheme         WeightScheme... Becke
Basis function cutoff            BFCut       ... 1.0000e-11
Integration weight cutoff        WCut        ... 1.0000e-14
Angular grids for H and He will be reduced by one unit
Partially contracted basis set               ... on
Rotationally invariant grid construction     ... off

Total number of grid points                  ...     4604
Total number of batches                      ...       75
Average number of points per batch           ...       61
Average number of grid points per atom       ...      921
UseSFitting                                  ... on

GRIDX 2
-------
General Integration Accuracy     IntAcc      ... 4.020
Radial Grid Type                 RadialGrid  ... OptM3 with GC (2021)
Angular Grid (max. ang.)         AngularGrid ... 2 (Lebedev-110)
Angular grid pruning method      GridPruning ... 4 (adaptive)
Weight generation scheme         WeightScheme... Becke
Basis function cutoff            BFCut       ... 1.0000e-11
Integration weight cutoff        WCut        ... 1.0000e-14
Angular grids for H and He will be reduced by one unit
Partially contracted basis set               ... on
Rotationally invariant grid construction     ... off

Total number of grid points                  ...    10600
Total number of batches                      ...      168
Average number of points per batch           ...       63
Average number of grid points per atom       ...     2120
UseSFitting                                  ... on

GRIDX 3
-------
General Integration Accuracy     IntAcc      ... 4.338
Radial Grid Type                 RadialGrid  ... OptM3 with GC (2021)
Angular Grid (max. ang.)         AngularGrid ... 3 (Lebedev-194)
Angular grid pruning method      GridPruning ... 4 (adaptive)
Weight generation scheme         WeightScheme... Becke
Basis function cutoff            BFCut       ... 1.0000e-11
Integration weight cutoff        WCut        ... 1.0000e-14
Angular grids for H and He will be reduced by one unit
Partially contracted basis set               ... on
Rotationally invariant grid construction     ... off

Total number of grid points                  ...    26218
Total number of batches                      ...      411
Average number of points per batch           ...       63
Average number of grid points per atom       ...     5244
UseSFitting                                  ... on

Time for X-Grid setup             =    0.145 sec

--------------
SCF ITERATIONS
--------------
ITER       Energy         Delta-E        Max-DP      RMS-DP      [F,P]     Damp
               ***  Starting incremental Fock matrix formation  ***
  0  -3349.0758377143   0.000000000000 0.00060217  0.00002925  0.0051103 0.7000
  1  -3349.0758964943  -0.000058780028 0.00076889  0.00002918  0.0035789 0.7000
                               ***Turning on DIIS***
  2  -3349.0759452293  -0.000048735024 0.00272139  0.00008321  0.0025054 0.0000
  3  -3349.0760782468  -0.000133017436 0.00079135  0.00002073  0.0010147 0.0000
  4  -3349.0760862926  -0.000008045821 0.00052251  0.00001334  0.0015774 0.0000
  5  -3349.0760926808  -0.000006388200 0.00088477  0.00002456  0.0005004 0.0000
               *** Restarting incremental Fock matrix formation ***
                                   *** Resetting DIIS ***
  6  -3349.0760989307  -0.000006249946 0.00035599  0.00000871  0.0001341 0.0000
  7  -3349.0760989395  -0.000000008809 0.00036091  0.00000465  0.0006511 0.0000
  8  -3349.0760994129  -0.000000473358 0.00012387  0.00000228  0.0002941 0.0000
  9  -3349.0760995173  -0.000000104453 0.00005163  0.00000152  0.0000445 0.0000
 10  -3349.0760995390  -0.000000021617 0.00000562  0.00000016  0.0000076 0.0000
 11  -3349.0760995352   0.000000003741 0.00000223  0.00000006  0.0000038 0.0000
                 **** Energy Check signals convergence ****

               *****************************************************
               *                     SUCCESS                       *
               *           SCF CONVERGED AFTER  12 CYCLES          *
               *****************************************************

Old exchange energy                            =    -34.444572322 Eh
New exchange energy                            =    -34.444459090 Eh
Exchange energy change after final integration =      0.000113232 Eh
Total energy after final integration           =  -3349.075986307 Eh
Final COS-X integration done in                =     1.134 sec
Total Energy       :        -3349.07598631 Eh          -91132.99070 eV
  Last Energy change         ...   -4.0491e-09  Tolerance :   1.0000e-08
  Last MAX-Density change    ...    0.0000e+00  Tolerance :   1.0000e-07
             **** THE GBW FILE WAS UPDATED (NiCl4.gbw) ****
             **** DENSITY NiCl4.scfp WAS UPDATED ****
             **** ENERGY FILE WAS UPDATED (NiCl4.en.tmp) ****
             **** THE GBW FILE WAS UPDATED (NiCl4.gbw) ****
             **** DENSITY NiCl4.scfp WAS UPDATED ****
Total SCF time: 0 days 0 hours 0 min 7 sec 

Maximum memory used throughout the entire SCF-calculation: 66.6 MB

-------------------------   --------------------
FINAL SINGLE POINT ENERGY     -3349.075986306864
-------------------------   --------------------



           ************************************************************
           *        Program running with 4 parallel MPI-processes     *
           *              working on a common directory               *
           ************************************************************
------------------------------------------------------------------------------
                         ORCA SCF GRADIENT CALCULATION
------------------------------------------------------------------------------

 ... reading COSX grid (gridx3)
Gradient of the Kohn-Sham DFT energy:
Kohn-Sham wavefunction type      ... RKS
Hartree-Fock exchange scaling    ...    0.200
Number of operators              ...    1
Number of atoms                  ...    5
Basis set dimensions             ...  193
Integral neglect threshold       ... 2.5e-11
Integral primitive cutoff        ... 2.5e-12
SHARK Integral package           ... ON

Nuc. rep. gradient       (SHARK) ... done (  0.0 sec)
HCore & Overlap gradient (SHARK) ... done (  0.0 sec)
RI-J gradient            (SHARK) ... done (  0.3 sec)
COSX-gradient                    ... done (  1.3 sec)
Exchange-correlation gradient    ... done

------------------
CARTESIAN GRADIENT
------------------

   1   Ni  :    0.000000011    0.000000220    0.000000023
   2   Cl  :    0.000000012   -0.003585487   -0.010337942
   3   Cl  :    0.000000071    0.003585547   -0.010338038
   4   Cl  :   -0.003585510    0.000000170    0.010338129
   5   Cl  :    0.003585274    0.000000044    0.010337961

Difference to translation invariance:
           :   -0.0000001413    0.0000004937    0.0000001333

Difference to rotation invariance:
           :   -0.0000007878   -0.0000001677   -0.0000006980

Norm of the cartesian gradient     ...    0.0218842495
RMS gradient                       ...    0.0056504889
MAX gradient                       ...    0.0103381292

-------
TIMINGS
-------

Total SCF gradient time            ...        2.002 sec

One electron gradient       ....       0.016 sec  (  0.8%)
RI-J Coulomb gradient       ....       0.272 sec  ( 13.6%)
COSX gradient               ....       1.291 sec  ( 64.5%)
XC gradient                 ....       0.275 sec  ( 13.7%)

Maximum memory used throughout the entire SCFGRAD-calculation: 40.3 MB
------------------------------------------------------------------------------
                         ORCA GEOMETRY RELAXATION STEP
------------------------------------------------------------------------------

Reading the OPT-File                    .... done
Getting information on internals        .... done
Copying old internal coords+grads       .... done
Making the new internal coordinates     .... (new redundants).... done
Validating the new internal coordinates .... (new redundants).... done
Calculating the B-matrix                .... done
Calculating the G,G- and P matrices     .... done
Transforming gradient to internals      .... done
Projecting the internal gradient        .... done
Number of atoms                         ....   5
Number of internal coordinates          ....  10
Current Energy                          .... -3349.075986307 Eh
Current gradient norm                   ....     0.021884249 Eh/bohr
Maximum allowed component of the step   ....  0.300
Current trust radius                    ....  0.300
Updating the Hessian (BFGS)             .... done
Forming the augmented Hessian           .... done
Diagonalizing the augmented Hessian     .... done
Last element of RFO vector              ....  0.822944304
Lowest eigenvalues of augmented Hessian:
 -0.026696758  0.055604632  0.304114869  0.304114869  0.304114869
Length of the computed step             ....  0.690352986
Warning: the length of the step is outside the trust region - taking restricted step instead
The input lambda is                     ....    -0.026697
   iter:   1  x=   -0.049328  g=   17.082172 f(x)=     0.386587
   iter:   2  x=   -0.073931  g=    6.148781 f(x)=     0.151282
   iter:   3  x=   -0.092325  g=    2.711801 f(x)=     0.049881
   iter:   4  x=   -0.098820  g=    1.656808 f(x)=     0.010761
   iter:   5  x=   -0.099389  g=    1.417108 f(x)=     0.000805
   iter:   6  x=   -0.099392  g=    1.398391 f(x)=     0.000005
   iter:   7  x=   -0.099392  g=    1.398267 f(x)=     0.000000
   iter:   8  x=   -0.099392  g=    1.398267 f(x)=    -0.000000
The output lambda is                    ....    -0.099392 (8 iterations)
The final length of the internal step   ....  0.300000000
Converting the step to cartesian space:
 Initial RMS(Int)=    0.0948683298
Transforming coordinates:
 Iter   0:  RMS(Cart)=    0.1761846351 RMS(Int)=    0.0909715091
 Iter   1:  RMS(Cart)=    0.0062975123 RMS(Int)=    0.0077128395
 Iter   2:  RMS(Cart)=    0.0004629251 RMS(Int)=    0.0002118802
 Iter   3:  RMS(Cart)=    0.0000343331 RMS(Int)=    0.0000412200
 Iter   4:  RMS(Cart)=    0.0000024434 RMS(Int)=    0.0000013179
 Iter   5:  RMS(Cart)=    0.0000001860 RMS(Int)=    0.0000002107
 Iter   6:  RMS(Cart)=    0.0000000129 RMS(Int)=    0.0000000090
done
Storing new coordinates                 .... done

                                .--------------------.
          ----------------------|Geometry convergence|-------------------------
          Item                value                   Tolerance       Converged
          ---------------------------------------------------------------------
          Energy change      -0.0041572616            0.0000050000      NO
          RMS gradient        0.0123853156            0.0001000000      NO
          MAX gradient        0.0204092790            0.0003000000      NO
          RMS step            0.0948683298            0.0020000000      NO
          MAX step            0.1439988561            0.0040000000      NO
          ........................................................
          Max(Bonds)      0.0445      Max(Angles)    8.25
          Max(Dihed)        0.00      Max(Improp)    0.00
          ---------------------------------------------------------------------

The optimization has not yet converged - more geometry cycles are needed


    ---------------------------------------------------------------------------
                         Redundant Internal Coordinates
                            (Angstroem and degrees)

        Definition                    Value    dE/dq     Step     New-Value
    ----------------------------------------------------------------------------
     1. B(Cl  1,Ni  0)                2.4195  0.008741 -0.0445    2.3750   
     2. B(Cl  2,Ni  0)                2.4195  0.008741 -0.0445    2.3750   
     3. B(Cl  3,Ni  0)                2.4195  0.008741 -0.0445    2.3750   
     4. B(Cl  4,Ni  0)                2.4195  0.008741 -0.0445    2.3750   
     5. A(Cl  1,Ni  0,Cl  3)          108.12  0.009941   -4.07    104.05   
     6. A(Cl  2,Ni  0,Cl  3)          108.12  0.009941   -4.07    104.05   
     7. A(Cl  1,Ni  0,Cl  4)          108.12  0.009940   -4.07    104.05   
     8. A(Cl  2,Ni  0,Cl  4)          108.12  0.009940   -4.07    104.05   
     9. A(Cl  3,Ni  0,Cl  4)          112.21 -0.020409    8.25    120.46   
    10. A(Cl  1,Ni  0,Cl  2)          112.21 -0.020409    8.25    120.46   
    ----------------------------------------------------------------------------

         *************************************************************
         *                GEOMETRY OPTIMIZATION CYCLE   3            *
         *************************************************************
---------------------------------
CARTESIAN COORDINATES (ANGSTROEM)
---------------------------------
  Ni     0.000001    0.000000    0.000000
  Cl    -0.000001   -2.063107   -1.176443
  Cl    -0.000001    2.063107   -1.176444
  Cl    -2.063107   -0.000000    1.176442
  Cl     2.063109   -0.000000    1.176445

----------------------------
CARTESIAN COORDINATES (A.U.)
----------------------------
  NO LB      ZA    FRAG     MASS         X           Y           Z
   0 Ni   28.0000    0    58.700    0.000001    0.000000    0.000001
   1 Cl   17.0000    0    35.453   -0.000002   -3.898706   -2.223156
   2 Cl   17.0000    0    35.453   -0.000002    3.898707   -2.223158
   3 Cl   17.0000    0    35.453   -3.898708   -0.000001    2.223154
   4 Cl   17.0000    0    35.453    3.898710   -0.000000    2.223159

--------------------------------
INTERNAL COORDINATES (ANGSTROEM)
--------------------------------
 Ni     0   0   0     0.000000000000     0.00000000     0.00000000
 Cl     1   0   0     2.374958769039     0.00000000     0.00000000
 Cl     1   2   0     2.374959476658   120.61386909     0.00000000
 Cl     1   2   3     2.374958838165   104.20392226   116.35155117
[...]
  1 Cl    17.6309    17.0000    -0.6309     0.6328     0.6328     0.0000
  2 Cl    17.6309    17.0000    -0.6309     0.6328     0.6328     0.0000
  3 Cl    17.6309    17.0000    -0.6309     0.6328     0.6328     0.0000
  4 Cl    17.6309    17.0000    -0.6309     0.6328     0.6328     0.0000

  Mayer bond orders larger than 0.100000
B(  0-Ni,  1-Cl) :   0.5993 B(  0-Ni,  2-Cl) :   0.5993 B(  0-Ni,  3-Cl) :   0.5993 
B(  0-Ni,  4-Cl) :   0.5993 

-------
TIMINGS
-------

Total SCF time: 0 days 0 hours 0 min 2 sec 

Total time                  ....       2.899 sec
Sum of individual times     ....       2.794 sec  ( 96.4%)

Fock matrix formation       ....       2.405 sec  ( 83.0%)
  Split-RI-J                ....       0.189 sec  (  7.9% of F)
  Chain of spheres X        ....       2.090 sec  ( 86.9% of F)
  XC integration            ....       0.125 sec  (  5.2% of F)
    Basis function eval.    ....       0.038 sec  ( 30.6% of XC)
    Density eval.           ....       0.032 sec  ( 26.0% of XC)
    XC-Functional eval.     ....       0.007 sec  (  5.6% of XC)
    XC-Potential eval.      ....       0.033 sec  ( 26.9% of XC)
Diagonalization             ....       0.010 sec  (  0.3%)
Density matrix formation    ....       0.001 sec  (  0.0%)
Population analysis         ....       0.009 sec  (  0.3%)
Initial guess               ....       0.006 sec  (  0.2%)
Orbital Transformation      ....       0.000 sec  (  0.0%)
Orbital Orthonormalization  ....       0.004 sec  (  0.1%)
DIIS solution               ....       0.004 sec  (  0.1%)
Grid generation             ....       0.359 sec  ( 12.4%)

Maximum memory used throughout the entire SCF-calculation: 67.2 MB

-------------------------   --------------------
FINAL SINGLE POINT ENERGY     -3349.111003386547
-------------------------   --------------------

                                *** OPTIMIZATION RUN DONE ***

                            ***************************************
                            *     ORCA property calculations      *
                            ***************************************

                                    ---------------------
                                    Active property flags
                                    ---------------------
   (+) Dipole Moment


------------------------------------------------------------------------------
                       ORCA ELECTRIC PROPERTIES CALCULATION
------------------------------------------------------------------------------

Dipole Moment Calculation                       ... on
Quadrupole Moment Calculation                   ... off
Polarizability Calculation                      ... off
GBWName                                         ... NiCl4.gbw
Electron density                                ... NiCl4.scfp
The origin for moment calculation is the CENTER OF MASS  = ( 0.000000, -0.000000 -0.000120)

-------------
DIPOLE MOMENT
-------------
                                X             Y             Z
Electronic contribution:      0.00000       0.00000      -0.00099
Nuclear contribution   :     -0.00000       0.00000       0.00013
                        -----------------------------------------
Total Dipole Moment    :      0.00000       0.00000      -0.00086
                        -----------------------------------------
Magnitude (a.u.)       :      0.00086
Magnitude (Debye)      :      0.00218



--------------------
Rotational spectrum 
--------------------
 
Rotational constants in cm-1:     0.045504     0.045504     0.022752 
Rotational constants in MHz :  1364.180502  1364.177952   682.092234 

 Dipole components along the rotational axes: 
x,y,z [a.u.] :    -0.000002    -0.000000    -0.000857 
x,y,z [Debye]:    -0.000005    -0.000001    -0.002179 

 


           ************************************************************
           *        Program running with 4 parallel MPI-processes     *
           *              working on a common directory               *
           ************************************************************

-------------------------------------------------------------------------------
                               ORCA SCF HESSIAN
-------------------------------------------------------------------------------

                   --------- SHARK INITIALIZATION DONE ---------

Hessian of the Kohn-Sham DFT energy:
Kohn-Sham wavefunction type                      ... RKS
Hartree-Fock exchange scaling                    ...    0.200
Number of operators                              ...    1
Number of atoms                                  ...    5
Basis set dimensions                             ...  193
Integral neglect threshold                       ... 2.5e-11
Integral primitive cutoff                        ... 2.5e-12

Setting up DFT Hessian calculations              ... 

HESS GRID
---------

General Integration Accuracy     IntAcc      ... 4.629
Radial Grid Type                 RadialGrid  ... OptM3 with GC (2021)
Angular Grid (max. ang.)         AngularGrid ... 5 (Lebedev-434)
Angular grid pruning method      GridPruning ... 4 (adaptive)
Weight generation scheme         WeightScheme... Becke
Basis function cutoff            BFCut       ... 1.0000e-11
Integration weight cutoff        WCut        ... 1.0000e-14
Angular grids for H and He will be reduced by one unit
Partially contracted basis set               ... off
Rotationally invariant grid construction     ... off

Total number of grid points                  ...    60316
Total number of batches                      ...      946
Average number of points per batch           ...       63
Average number of grid points per atom       ...    12063

Building densities                               ... done   (      0.0 sec)
Calculating rho(r) on the grid                   ... done   (      0.1 sec)
Building xc-kernel on the grid                   ... done   (      0.0 sec)
                                                     done   (      0.5 sec)

Nuclear repulsion Hessian  (SHARK)               ... done   (      0.0 sec)

----------------------------------------------
Forming right-hand sides of CP-SCF equations     ...
----------------------------------------------
One electron integral derivatives  (SHARK)       ... done   (      0.0 sec)
Transforming the overlap derivative matrices     ... done   (      0.0 sec)
Making the Q(x) pseudodensities                  ... done   (      0.0 sec)
Adding the E*S(x)*S(y) terms to the Hessian      ... done   (      0.0 sec)
Calculating energy weighted overlap derivatives  ... done   (      0.0 sec)
Two electron integral derivatives (SHARK-RI)     ... done   (     10.5 sec)
Exchange-correlation integral derivatives        ... done   (      4.6 sec)
tr(F(y)Q(x)) contribution to the Hessian         ... done   (      0.0 sec)
Response fock operator R(S(x)) (SHARK-RIJCOSX)   ... done   (      1.4 sec)
XC Response fock operator R(S(x))                ... done   (      0.9 sec)
tr(F(y)S(x)) contribution to the Hessian         ... done   (      0.0 sec)
Transforming and finalizing RHSs                 ... done   (      0.0 sec)

----------------------------------------------
Solving the CP-SCF equations (RIJCOSX)           ...
----------------------------------------------
     CP-SCF ITERATION   0:   1.7722e-01 (   0.7 sec   0/ 15 done)
     CP-SCF ITERATION   1:   3.1069e-02 (   0.7 sec   0/ 15 done)
     CP-SCF ITERATION   2:   1.4007e-02 (   0.7 sec   0/ 15 done)
     CP-SCF ITERATION   3:   6.2689e-03 (   0.7 sec   0/ 15 done)
     CP-SCF ITERATION   4:   2.0598e-03 (   0.7 sec   0/ 15 done)
     CP-SCF ITERATION   5:   7.0136e-04 (   0.7 sec   1/ 15 done)
     CP-SCF ITERATION   6:   2.8624e-04 (   0.7 sec   7/ 15 done)
     CP-SCF ITERATION   7:   6.5826e-05 (   0.5 sec  15/ 15 done)
                    *** THE CP-SCF HAS CONVERGED ***

                                                 ... done   (      5.6 sec)
Forming perturbed density Hessian contributions  ... done   (      0.0 sec)
2nd integral derivative contribs (SHARK-RI)      ... done   (     30.4 sec)
Exchange-correlation Hessian                     ... done   (      2.7 sec)
Dipole derivatives                               ... (center of mass:  0.000000, -0.000000 -0.000120)done   (      0.1 sec)

Total SCF Hessian time: 0 days 0 hours 0 min 57 sec 

Writing the Hessian file to the disk             ... done


Maximum memory used throughout the entire SCFHESS-calculation: 112.1 MB

-----------------------
VIBRATIONAL FREQUENCIES
-----------------------

Scaling factor for frequencies =  1.000000000  (already applied!)

   0:         0.00 cm**-1
   1:         0.00 cm**-1
   2:         0.00 cm**-1
   3:         0.00 cm**-1
   4:         0.00 cm**-1
   5:         0.00 cm**-1
   6:        29.32 cm**-1
   7:       166.04 cm**-1
   8:       166.04 cm**-1
   9:       174.12 cm**-1
  10:       178.14 cm**-1
  11:       192.86 cm**-1
  12:       247.47 cm**-1
  13:       293.20 cm**-1
  14:       293.20 cm**-1


------------
NORMAL MODES
------------

These modes are the Cartesian displacements weighted by the diagonal matrix
M(i,i)=1/sqrt(m[i]) where m[i] is the mass of the displaced atom
Thus, these vectors are normalized but *not* orthogonal

                  0          1          2          3          4          5    
      0       0.000000   0.000000   0.000000   0.000000   0.000000   0.000000
      1       0.000000   0.000000   0.000000   0.000000   0.000000   0.000000
      2       0.000000   0.000000   0.000000   0.000000   0.000000   0.000000
      3       0.000000   0.000000   0.000000   0.000000   0.000000   0.000000
      4       0.000000   0.000000   0.000000   0.000000   0.000000   0.000000
      5       0.000000   0.000000   0.000000   0.000000   0.000000   0.000000
      6       0.000000   0.000000   0.000000   0.000000   0.000000   0.000000
      7       0.000000   0.000000   0.000000   0.000000   0.000000   0.000000
      8       0.000000   0.000000   0.000000   0.000000   0.000000   0.000000
      9       0.000000   0.000000   0.000000   0.000000   0.000000   0.000000
     10       0.000000   0.000000   0.000000   0.000000   0.000000   0.000000
     11       0.000000   0.000000   0.000000   0.000000   0.000000   0.000000
     12       0.000000   0.000000   0.000000   0.000000   0.000000   0.000000
     13       0.000000   0.000000   0.000000   0.000000   0.000000   0.000000
     14       0.000000   0.000000   0.000000   0.000000   0.000000   0.000000
                  6          7          8          9         10         11    
      0      -0.000000  -0.053570  -0.208433   0.000007  -0.000001   0.000002
      1      -0.000000   0.208432  -0.053570  -0.000007  -0.000000  -0.000001
      2      -0.000004  -0.000000   0.000000  -0.000003   0.770280  -0.003046
      3       0.000001   0.141701   0.551265   0.499981   0.000003  -0.000001
      4       0.000627   0.378699  -0.097331  -0.000013   0.002577   0.499999
      5      -0.499997   0.001332  -0.000342   0.000002  -0.318845   0.001222
      6       0.000001   0.141657   0.551242  -0.500019  -0.000002  -0.000002
      7      -0.000627   0.378704  -0.097331  -0.000015  -0.002577  -0.499998
      8      -0.499998  -0.001331   0.000343   0.000000  -0.318845   0.001222
      9       0.000704  -0.097334  -0.378703   0.000015  -0.002916  -0.499994
     10      -0.000000  -0.551232   0.141691   0.500020   0.000002   0.000001
     11       0.500002   0.000315   0.001228   0.000001  -0.318836   0.001299
     12      -0.000706  -0.097328  -0.378699   0.000011   0.002917   0.499994
     13      -0.000000  -0.551275   0.141667  -0.499980  -0.000002  -0.000000
     14       0.500001  -0.000316  -0.001229   0.000001  -0.318837   0.001301
                 12         13         14    
      0      -0.000000  -0.003281   0.714157
      1      -0.000002   0.714158   0.003281
      2       0.000188   0.000000   0.000001
      3       0.000000   0.000497  -0.108249
      4       0.500002  -0.482967  -0.002221
      5       0.000588  -0.000339  -0.000002
      6       0.000003   0.000498  -0.108249
      7      -0.499994  -0.482975  -0.002217
      8       0.000588   0.000339   0.000001
      9       0.499999   0.002221  -0.482970
     10      -0.000004  -0.108250  -0.000497
     11      -0.000743  -0.000003   0.000692
     12      -0.500002   0.002216  -0.482972
     13      -0.000001  -0.108249  -0.000498
     14      -0.000745   0.000003  -0.000694


-----------
IR SPECTRUM
-----------

 Mode   freq       eps      Int      T**2         TX        TY        TZ
       cm**-1   L/(mol*cm) km/mol    a.u.
----------------------------------------------------------------------------
  6:     29.32   0.000000    0.00  0.000000  ( 0.000000 -0.000000 -0.000002)
  7:    166.04   0.000581    2.94  0.001093  ( 0.008229 -0.032017  0.000000)
  8:    166.04   0.000581    2.94  0.001093  ( 0.032017  0.008229  0.000000)
  9:    174.12   0.000000    0.00  0.000000  (-0.000001  0.000001 -0.000000)
 10:    178.14   0.002034   10.28  0.003564  (-0.000000 -0.000000  0.059698)
 11:    192.86   0.000000    0.00  0.000000  ( 0.000000 -0.000000 -0.000426)
 12:    247.47   0.000000    0.00  0.000000  ( 0.000000 -0.000001  0.000034)
 13:    293.20   0.020099  101.57  0.021393  (-0.000672  0.146261  0.000000)
 14:    293.20   0.020099  101.57  0.021392  ( 0.146260  0.000672  0.000000)

* The epsilon (eps) is given for a Dirac delta lineshape.
** The dipole moment derivative (T) already includes vibrational overlap.

The first frequency considered to be a vibration is 6
The total number of vibrations considered is 9


--------------------------
THERMOCHEMISTRY AT 298.15K
--------------------------

Temperature         ... 298.15 K
Pressure            ... 1.00 atm
Total Mass          ... 200.51 AMU

Throughout the following assumptions are being made:
  (1) The electronic state is orbitally nondegenerate
  (2) There are no thermally accessible electronically excited states
  (3) Hindered rotations indicated by low frequency modes are not
      treated as such but are treated as vibrations and this may
      cause some error
  (4) All equations used are the standard statistical mechanics
      equations for an ideal gas
  (5) All vibrations are strictly harmonic

freq.      29.32  E(vib)   ...       0.55 
freq.     166.04  E(vib)   ...       0.39 
freq.     166.04  E(vib)   ...       0.39 
freq.     174.12  E(vib)   ...       0.38 
freq.     178.14  E(vib)   ...       0.37 
freq.     192.86  E(vib)   ...       0.36 
freq.     247.47  E(vib)   ...       0.31 
freq.     293.20  E(vib)   ...       0.27 
freq.     293.20  E(vib)   ...       0.27 

------------
INNER ENERGY
------------

The inner energy is: U= E(el) + E(ZPE) + E(vib) + E(rot) + E(trans)
    E(el)   - is the total energy from the electronic structure calculation
              = E(kin-el) + E(nuc-el) + E(el-el) + E(nuc-nuc)
    E(ZPE)  - the the zero temperature vibrational energy from the frequency calculation
    E(vib)  - the the finite temperature correction to E(ZPE) due to population
              of excited vibrational states
    E(rot)  - is the rotational thermal energy
    E(trans)- is the translational thermal energy

Summary of contributions to the inner energy U:
Electronic energy                ...  -3349.11100339 Eh
Zero point energy                ...      0.00396487 Eh       2.49 kcal/mol
Thermal vibrational correction   ...      0.00522869 Eh       3.28 kcal/mol
Thermal rotational correction    ...      0.00141627 Eh       0.89 kcal/mol
Thermal translational correction ...      0.00141627 Eh       0.89 kcal/mol
-----------------------------------------------------------------------
Total thermal energy                  -3349.09897728 Eh


Summary of corrections to the electronic energy:
(perhaps to be used in another calculation)
Total thermal correction                  0.00806123 Eh       5.06 kcal/mol
Non-thermal (ZPE) correction              0.00396487 Eh       2.49 kcal/mol
-----------------------------------------------------------------------
Total correction                          0.01202610 Eh       7.55 kcal/mol


--------
ENTHALPY
--------

The enthalpy is H = U + kB*T
                kB is Boltzmann's constant
Total free energy                 ...  -3349.09897728 Eh 
Thermal Enthalpy correction       ...      0.00094421 Eh       0.59 kcal/mol
-----------------------------------------------------------------------
Total Enthalpy                    ...  -3349.09803308 Eh


Note: Only C1 symmetry has been detected, increase convergence thresholds 
      if your molecule has a higher symmetry. Symmetry factor of 1.0 is   
      used for the rotational entropy correction. 
 

Note: Rotational entropy computed according to Herzberg 
Infrared and Raman Spectra, Chapter V,1, Van Nostrand Reinhold, 1945 
Point Group:  C1, Symmetry Number:   1  
Rotational constants in cm-1:     0.045504     0.045504     0.022752 

Vibrational entropy computed according to the QRRHO of S. Grimme
Chem.Eur.J. 2012 18 9955


-------
ENTROPY
-------

The entropy contributions are T*S = T*(S(el)+S(vib)+S(rot)+S(trans))
     S(el)   - electronic entropy
     S(vib)  - vibrational entropy
     S(rot)  - rotational entropy
     S(trans)- translational entropy
The entropies will be listed as multiplied by the temperature to get
units of energy

Electronic entropy                ...      0.00000000 Eh      0.00 kcal/mol
Vibrational entropy               ...      0.00979508 Eh      6.15 kcal/mol
Rotational entropy                ...      0.01421425 Eh      8.92 kcal/mol
Translational entropy             ...      0.01985655 Eh     12.46 kcal/mol
-----------------------------------------------------------------------
Final entropy term                ...      0.04386588 Eh     27.53 kcal/mol

In case the symmetry of your molecule has not been determined correctly
or in case you have a reason to use a different symmetry number we print 
out the resulting rotational entropy values for sn=1,12 :
 --------------------------------------------------------
|  sn= 1 | S(rot)=       0.01421425 Eh      8.92 kcal/mol|
|  sn= 2 | S(rot)=       0.01355979 Eh      8.51 kcal/mol|
|  sn= 3 | S(rot)=       0.01317696 Eh      8.27 kcal/mol|
|  sn= 4 | S(rot)=       0.01290534 Eh      8.10 kcal/mol|
|  sn= 5 | S(rot)=       0.01269465 Eh      7.97 kcal/mol|
|  sn= 6 | S(rot)=       0.01252250 Eh      7.86 kcal/mol|
|  sn= 7 | S(rot)=       0.01237696 Eh      7.77 kcal/mol|
|  sn= 8 | S(rot)=       0.01225088 Eh      7.69 kcal/mol|
|  sn= 9 | S(rot)=       0.01213967 Eh      7.62 kcal/mol|
|  sn=10 | S(rot)=       0.01204019 Eh      7.56 kcal/mol|
|  sn=11 | S(rot)=       0.01195020 Eh      7.50 kcal/mol|
|  sn=12 | S(rot)=       0.01186805 Eh      7.45 kcal/mol|
 --------------------------------------------------------


-------------------
GIBBS FREE ENERGY
-------------------

The Gibbs free energy is G = H - T*S

Total enthalpy                    ...  -3349.09803308 Eh 
Total entropy correction          ...     -0.04386588 Eh    -27.53 kcal/mol
-----------------------------------------------------------------------
Final Gibbs free energy         ...  -3349.14189895 Eh

For completeness - the Gibbs free energy minus the electronic energy
G-E(el)                           ...     -0.03089557 Eh    -19.39 kcal/mol


Timings for individual modules:

Sum of individual times         ...      376.176 sec (=   6.270 min)
GTO integral calculation        ...       16.421 sec (=   0.274 min)   4.4 %
SCF iterations                  ...      221.348 sec (=   3.689 min)  58.8 %
SCF Gradient evaluation         ...       80.860 sec (=   1.348 min)  21.5 %
Geometry relaxation             ...        0.199 sec (=   0.003 min)   0.1 %
Analytical frequency calculation...       57.349 sec (=   0.956 min)  15.2 %
                             ****ORCA TERMINATED NORMALLY****
TOTAL RUN TIME: 0 days 0 hours 6 minutes 28 seconds 264 msec
