
                                 *****************
                                 * O   R   C   A *
                                 *****************

                                            #,                                       
                                            ###                                      
                                            ####                                     
                                            #####                                    
                                            ######                                   
                                           ########,                                 
                                     ,,################,,,,,                         
                               ,,#################################,,                 
                          ,,##########################################,,             
                       ,#########################################, ''#####,          
                    ,#############################################,,   '####,        
                  ,##################################################,,,,####,       
                ,###########''''           ''''###############################       
              ,#####''   ,,,,##########,,,,          '''####'''          '####       
            ,##' ,,,,###########################,,,                        '##       
           ' ,,###''''                  '''############,,,                           
         ,,##''                                '''############,,,,        ,,,,,,###''
      ,#''                                            '''#######################'''  
     '                                                          ''''####''''         
             ,#######,   #######,   ,#######,      ##                                
            ,#'     '#,  ##    ##  ,#'     '#,    #''#        ######   ,####,        
            ##       ##  ##   ,#'  ##            #'  '#       #        #'  '#        
            ##       ##  #######   ##           ,######,      #####,   #    #        
            '#,     ,#'  ##    ##  '#,     ,#' ,#      #,         ##   #,  ,#        
             '#######'   ##     ##  '#######'  #'      '#     #####' # '####'        



                  #######################################################
                  #                        -***-                        #
                  #          Department of theory and spectroscopy      #
                  #    Directorship and core code : Frank Neese         #
                  #        Max Planck Institute fuer Kohlenforschung    #
                  #                Kaiser Wilhelm Platz 1               #
                  #                 D-45470 Muelheim/Ruhr               #
                  #                      Germany                        #
                  #                                                     #
                  #                  All rights reserved                #
                  #                        -***-                        #
                  #######################################################


                         Program Version 5.0.4 -  RELEASE  -


 With contributions from (in alphabetic order):
   Daniel Aravena         : Magnetic Suceptibility
   Michael Atanasov       : Ab Initio Ligand Field Theory (pilot matlab implementation)
   Alexander A. Auer      : GIAO ZORA, VPT2 properties, NMR spectrum
   Ute Becker             : Parallelization
   Giovanni Bistoni       : ED, misc. LED, open-shell LED, HFLD
   Martin Brehm           : Molecular dynamics
   Dmytro Bykov           : SCF Hessian
   Vijay G. Chilkuri      : MRCI spin determinant printing, contributions to CSF-ICE
   Dipayan Datta          : RHF DLPNO-CCSD density
   Achintya Kumar Dutta   : EOM-CC, STEOM-CC
   Dmitry Ganyushin       : Spin-Orbit,Spin-Spin,Magnetic field MRCI
   Miquel Garcia          : C-PCM and meta-GGA Hessian, CC/C-PCM, Gaussian charge scheme
   Yang Guo               : DLPNO-NEVPT2, F12-NEVPT2, CIM, IAO-localization
   Andreas Hansen         : Spin unrestricted coupled pair/coupled cluster methods
   Benjamin Helmich-Paris : MC-RPA, TRAH-SCF, COSX integrals
   Lee Huntington         : MR-EOM, pCC
   Robert Izsak           : Overlap fitted RIJCOSX, COSX-SCS-MP3, EOM
   Marcus Kettner         : VPT2
   Christian Kollmar      : KDIIS, OOCD, Brueckner-CCSD(T), CCSD density, CASPT2, CASPT2-K
   Simone Kossmann        : Meta GGA functionals, TD-DFT gradient, OOMP2, MP2 Hessian
   Martin Krupicka        : Initial AUTO-CI
   Lucas Lang             : DCDCAS
   Marvin Lechner         : AUTO-CI (C++ implementation), FIC-MRCC
   Dagmar Lenk            : GEPOL surface, SMD
   Dimitrios Liakos       : Extrapolation schemes; Compound Job, initial MDCI parallelization
   Dimitrios Manganas     : Further ROCIS development; embedding schemes
   Dimitrios Pantazis     : SARC Basis sets
   Anastasios Papadopoulos: AUTO-CI, single reference methods and gradients
   Taras Petrenko         : DFT Hessian,TD-DFT gradient, ASA, ECA, R-Raman, ABS, FL, XAS/XES, NRVS
   Peter Pinski           : DLPNO-MP2, DLPNO-MP2 Gradient
   Christoph Reimann      : Effective Core Potentials
   Marius Retegan         : Local ZFS, SOC
   Christoph Riplinger    : Optimizer, TS searches, QM/MM, DLPNO-CCSD(T), (RO)-DLPNO pert. Triples
   Tobias Risthaus        : Range-separated hybrids, TD-DFT gradient, RPA, STAB
   Michael Roemelt        : Original ROCIS implementation
   Masaaki Saitow         : Open-shell DLPNO-CCSD energy and density
   Barbara Sandhoefer     : DKH picture change effects
   Avijit Sen             : IP-ROCIS
   Kantharuban Sivalingam : CASSCF convergence, NEVPT2, FIC-MRCI
   Bernardo de Souza      : ESD, SOC TD-DFT
   Georgi Stoychev        : AutoAux, RI-MP2 NMR, DLPNO-MP2 response
   Willem Van den Heuvel  : Paramagnetic NMR
   Boris Wezisla          : Elementary symmetry handling
   Frank Wennmohs         : Technical directorship


 We gratefully acknowledge several colleagues who have allowed us to
 interface, adapt or use parts of their codes:
   Stefan Grimme, W. Hujo, H. Kruse, P. Pracht,  : VdW corrections, initial TS optimization,
                  C. Bannwarth, S. Ehlert          DFT functionals, gCP, sTDA/sTD-DF
   Ed Valeev, F. Pavosevic, A. Kumar             : LibInt (2-el integral package), F12 methods
   Garnet Chan, S. Sharma, J. Yang, R. Olivares  : DMRG
   Ulf Ekstrom                                   : XCFun DFT Library
   Mihaly Kallay                                 : mrcc  (arbitrary order and MRCC methods)
   Jiri Pittner, Ondrej Demel                    : Mk-CCSD
   Frank Weinhold                                : gennbo (NPA and NBO analysis)
   Christopher J. Cramer and Donald G. Truhlar   : smd solvation model
   Lars Goerigk                                  : TD-DFT with DH, B97 family of functionals
   V. Asgeirsson, H. Jonsson                     : NEB implementation
   FAccTs GmbH                                   : IRC, NEB, NEB-TS, DLPNO-Multilevel, CI-OPT
                                                   MM, QMMM, 2- and 3-layer-ONIOM, Crystal-QMMM,
                                                   LR-CPCM, SF, NACMEs, symmetry and pop. for TD-DFT,
                                                   nearIR, NL-DFT gradient (VV10), updates on ESD,
                                                   ML-optimized integration grids
   S Lehtola, MJT Oliveira, MAL Marques          : LibXC Library
   Liviu Ungur et al                             : ANISO software


 Your calculation uses the libint2 library for the computation of 2-el integrals
 For citations please refer to: http://libint.valeyev.net

 Your ORCA version has been built with support for libXC version: 5.1.0
 For citations please refer to: https://tddft.org/programs/libxc/

 This ORCA versions uses:
   CBLAS   interface :  Fast vector & matrix operations
   LAPACKE interface :  Fast linear algebra routines
   SCALAPACK package :  Parallel linear algebra routines
   Shared memory     :  Shared parallel matrices
   BLAS/LAPACK       :  OpenBLAS 0.3.15  USE64BITINT DYNAMIC_ARCH NO_AFFINITY Haswell SINGLE_THREADED
        Core in use  :  Haswell
   Copyright (c) 2011-2014, The OpenBLAS Project


================================================================================

----- Orbital basis set information -----
Your calculation utilizes the basis: def2-TZVP
   F. Weigend and R. Ahlrichs, Phys. Chem. Chem. Phys. 7, 3297 (2005).

----- AuxJ basis set information -----
Your calculation utilizes the auxiliary basis: def2/J
   F. Weigend, Phys. Chem. Chem. Phys. 8, 1057 (2006).

================================================================================
                                        WARNINGS
                       Please study these warnings very carefully!
================================================================================


WARNING: Geometry Optimization
  ===> : Switching off AutoStart
         For restart on a previous wavefunction, please use MOREAD

INFO   : the flag for use of the SHARK integral package has been found!

================================================================================
                                       INPUT FILE
================================================================================
NAME = cucn3.inp
|  1> # avogadro generated ORCA file
|  2> # Geometry Optimization | PBE0/def2-TZVP
|  3> # 
|  4> ! Opt PBE0 def2-TZVP 
|  5> 
|  6> %maxcore 1024
|  7> 
|  8> %pal
|  9>    nprocs 4
| 10> end
| 11> 
| 12> * xyz -2 1
| 13>    Cu     0.098200    0.101000    0.001800
| 14>    C     -0.306400   -1.498600   -0.001200
| 15>    N     -1.204700   -2.146700   -0.001000
| 16>    C      1.685800    0.550500   -0.000200
| 17>    N      2.696200    0.096500   -0.003200
| 18>    C     -1.084800    1.251200   -0.000000
| 19>    N     -2.189500    1.332200   -0.003000
| 20> *
| 21> 
| 22> 
| 23> 
| 24>                          ****END OF INPUT****
================================================================================

                       *****************************
                       * Geometry Optimization Run *
                       *****************************

Geometry optimization settings:
Update method            Update   .... BFGS
Choice of coordinates    CoordSys .... Z-matrix Internals
Initial Hessian          InHess   .... Almoef's Model

Convergence Tolerances:
Energy Change            TolE     ....  5.0000e-06 Eh
Max. Gradient            TolMAXG  ....  3.0000e-04 Eh/bohr
RMS Gradient             TolRMSG  ....  1.0000e-04 Eh/bohr
Max. Displacement        TolMAXD  ....  4.0000e-03 bohr
RMS Displacement         TolRMSD  ....  2.0000e-03 bohr
Strict Convergence                ....  False
------------------------------------------------------------------------------
                        ORCA OPTIMIZATION COORDINATE SETUP
------------------------------------------------------------------------------

The optimization will be done in new redundant internal coordinates
Making redundant internal coordinates   ...  (new redundants) done
Evaluating the initial hessian          ...  (Almloef) done
Evaluating the coordinates              ...  done
Calculating the B-matrix                .... done
Calculating the G-matrix                .... done
Diagonalizing the G-matrix              .... done
The first mode is                       ....   39
The number of degrees of freedom        ....   15

    -----------------------------------------------------------------
                    Redundant Internal Coordinates


    -----------------------------------------------------------------
         Definition                    Initial Value    Approx d2E/dq
    -----------------------------------------------------------------
      1. B(C   1,Cu  0)                  1.6500         2.432672   
      2. B(N   2,Cu  0)                  2.5980         0.066939   
      3. B(N   2,C   1)                  1.1077         1.578641   
      4. B(C   3,Cu  0)                  1.6500         2.432408   
      5. B(N   4,C   3)                  1.1077         1.578493   
      6. B(N   4,Cu  0)                  2.5980         0.066942   
      7. B(C   5,Cu  0)                  1.6500         2.432613   
      8. B(N   6,C   5)                  1.1077         1.578758   
      9. B(N   6,Cu  0)                  2.5980         0.066952   
     10. A(C   3,Cu  0,N   6)          135.9028         0.465748   
     11. A(N   4,Cu  0,N   6)          151.8101         0.255092   
     12. A(N   2,Cu  0,C   3)          135.9074         0.465732   
     13. A(C   5,Cu  0,N   6)           15.9063         0.465755   
     14. A(C   1,Cu  0,N   4)          104.0951         0.465745   
     15. A(N   2,Cu  0,N   4)          119.9997         0.255085   
     16. A(C   3,Cu  0,N   4)           15.9078         0.465736   
     17. A(C   1,Cu  0,C   3)          120.0029         0.943574   
     18. A(C   1,Cu  0,N   2)           15.9046         0.465741   
     19. A(C   1,Cu  0,C   5)          119.9998         0.943590   
     20. A(N   2,Cu  0,C   5)          104.0954         0.465739   
     21. A(C   3,Cu  0,C   5)          119.9968         0.943569   
     22. A(N   4,Cu  0,C   5)          135.9043         0.465743   
     23. A(C   1,Cu  0,N   6)          104.0935         0.465757   
     24. A(N   2,Cu  0,N   6)           88.1891         0.255090   
     25. A(Cu  0,C   1,N   2)          140.0039         0.754444   
     26. A(Cu  0,N   2,C   1)           24.0915         0.382356   
     27. A(Cu  0,C   3,N   4)          139.9958         0.754413   
     28. A(Cu  0,N   4,C   3)           24.0964         0.382352   
     29. A(Cu  0,C   5,N   6)          139.9990         0.754451   
     30. A(Cu  0,N   6,C   5)           24.0947         0.382373   
     31. D(N   2,C   1,Cu  0,N   4)    179.9996         0.029701   
     32. D(N   2,C   1,Cu  0,N   6)     -0.2756         0.029701   
     33. D(N   2,C   1,Cu  0,C   5)     -0.2726         0.029701   
     34. D(N   2,C   1,Cu  0,C   3)   -179.9999         0.029701   
     35. D(C   1,N   2,Cu  0,C   5)    179.7566         0.001525   
     36. D(C   1,N   2,Cu  0,C   3)      0.0001         0.001525   
     37. D(C   1,N   2,Cu  0,N   6)    179.7326         0.001525   
     38. D(C   1,N   2,Cu  0,N   4)     -0.0005         0.001525   
     39. D(N   4,C   3,Cu  0,N   6)   -179.6176         0.029695   
     40. D(N   4,C   3,Cu  0,C   5)   -179.7291         0.029695   
     41. D(N   4,C   3,Cu  0,N   2)     -0.0018         0.029695   
     42. D(N   4,C   3,Cu  0,C   1)     -0.0018         0.029695   
     43. D(C   3,N   4,Cu  0,C   5)      0.3372         0.001525   
     44. D(C   3,N   4,Cu  0,N   2)    179.9986         0.001525   
     45. D(C   3,N   4,Cu  0,C   1)    179.9984         0.001525   
     46. D(C   3,N   4,Cu  0,N   6)      0.5634         0.001525   
     47. D(N   6,C   5,Cu  0,N   4)    179.6101         0.029700   
     48. D(N   6,C   5,Cu  0,C   3)    179.7168         0.029700   
     49. D(N   6,C   5,Cu  0,N   2)     -0.0876         0.029700   
     50. D(N   6,C   5,Cu  0,C   1)     -0.0105         0.029700   
     51. D(C   5,N   6,Cu  0,N   4)     -0.5743         0.001525   
     52. D(C   5,N   6,Cu  0,C   3)     -0.3525         0.001525   
     53. D(C   5,N   6,Cu  0,N   2)    179.9150         0.001525   
     54. D(C   5,N   6,Cu  0,C   1)    179.9906         0.001525   
    -----------------------------------------------------------------

Number of atoms                         .... 7
Number of degrees of freedom            .... 54

         *************************************************************
         *                GEOMETRY OPTIMIZATION CYCLE   1            *
         *************************************************************
---------------------------------
CARTESIAN COORDINATES (ANGSTROEM)
---------------------------------
  Cu     0.098200    0.101000    0.001800
  C     -0.306400   -1.498600   -0.001200
  N     -1.204700   -2.146700   -0.001000
  C      1.685800    0.550500   -0.000200
  N      2.696200    0.096500   -0.003200
  C     -1.084800    1.251200   -0.000000
  N     -2.189500    1.332200   -0.003000

----------------------------
CARTESIAN COORDINATES (A.U.)
----------------------------
  NO LB      ZA    FRAG     MASS         X           Y           Z
   0 Cu   29.0000    0    63.550    0.185571    0.190862    0.003402
   1 C     6.0000    0    12.011   -0.579012   -2.831944   -0.002268
   2 N     7.0000    0    14.007   -2.276553   -4.056675   -0.001890
   3 C     6.0000    0    12.011    3.185700    1.040294   -0.000378
   4 N     7.0000    0    14.007    5.095080    0.182359   -0.006047
   5 C     6.0000    0    12.011   -2.049975    2.364425   -0.000000
   6 N     7.0000    0    14.007   -4.137555    2.517493   -0.005669

--------------------------------
INTERNAL COORDINATES (ANGSTROEM)
--------------------------------
 Cu     0   0   0     0.000000000000     0.00000000     0.00000000
 C      1   0   0     1.649978884713     0.00000000     0.00000000
 N      2   1   0     1.107689730926   140.00390074     0.00000000
 C      1   2   3     1.650008487857   120.00285732   180.00008378
 N      4   1   2     1.107715288330   139.99581849     0.00000000
 C      1   2   3     1.649985539331   119.99980729   359.72741548
 N      6   1   2     1.107669666462   139.99897835     0.00000000

---------------------------
INTERNAL COORDINATES (A.U.)
---------------------------
 Cu     0   0   0     0.000000000000     0.00000000     0.00000000
 C      1   0   0     3.118008218861     0.00000000     0.00000000
 N      2   1   0     2.093230232808   140.00390074     0.00000000
 C      1   2   3     3.118064160695   120.00285732   180.00008378
 N      4   1   2     2.093278529301   139.99581849     0.00000000
 C      1   2   3     3.118020794265   119.99980729   359.72741548
 N      6   1   2     2.093192316465   139.99897835     0.00000000

---------------------
BASIS SET INFORMATION
---------------------
There are 3 groups of distinct atoms

 Group   1 Type Cu  : 17s11p7d1f contracted to 6s4p4d1f pattern {842111/6311/4111/1}
 Group   2 Type C   : 11s6p2d1f contracted to 5s3p2d1f pattern {62111/411/11/1}
 Group   3 Type N   : 11s6p2d1f contracted to 5s3p2d1f pattern {62111/411/11/1}

Atom   0Cu   basis set group =>   1
Atom   1C    basis set group =>   2
Atom   2N    basis set group =>   3
Atom   3C    basis set group =>   2
Atom   4N    basis set group =>   3
Atom   5C    basis set group =>   2
Atom   6N    basis set group =>   3
---------------------------------
AUXILIARY/J BASIS SET INFORMATION
---------------------------------
There are 3 groups of distinct atoms

 Group   1 Type Cu  : 19s5p5d3f3g contracted to 8s5p4d3f3g pattern {121111111/11111/2111/111/111}
 Group   2 Type C   : 12s5p4d2f1g contracted to 6s4p3d1f1g pattern {711111/2111/211/2/1}
 Group   3 Type N   : 12s5p4d2f1g contracted to 6s4p3d1f1g pattern {711111/2111/211/2/1}

Atom   0Cu   basis set group =>   1
Atom   1C    basis set group =>   2
Atom   2N    basis set group =>   3
Atom   3C    basis set group =>   2
Atom   4N    basis set group =>   3
Atom   5C    basis set group =>   2
Atom   6N    basis set group =>   3


           ************************************************************
           *        Program running with 4 parallel MPI-processes     *
           *              working on a common directory               *
           ************************************************************
------------------------------------------------------------------------------
                           ORCA GTO INTEGRAL CALCULATION
                           -- RI-GTO INTEGRALS CHOSEN --
------------------------------------------------------------------------------
------------------------------------------------------------------------------
                   ___                                                        
                  /   \      - P O W E R E D   B Y -                         
                 /     \                                                     
                 |  |  |   _    _      __       _____    __    __             
                 |  |  |  | |  | |    /  \     |  _  \  |  |  /  |          
                  \  \/   | |  | |   /    \    | | | |  |  | /  /          
                 / \  \   | |__| |  /  /\  \   | |_| |  |  |/  /          
                |  |  |   |  __  | /  /__\  \  |    /   |      \           
                |  |  |   | |  | | |   __   |  |    \   |  |\   \          
                \     /   | |  | | |  |  |  |  | |\  \  |  | \   \       
                 \___/    |_|  |_| |__|  |__|  |_| \__\ |__|  \__/        
                                                                              
                      - O R C A' S   B I G   F R I E N D -                    
                                      &                                       
                       - I N T E G R A L  F E E D E R -                       
                                                                              
 v1 FN, 2020, v2 2021                                                         
------------------------------------------------------------------------------


Reading SHARK input file cucn3.SHARKINP.tmp ... ok
----------------------
SHARK INTEGRAL PACKAGE
----------------------

Number of atoms                             ...      7
Number of basis functions                   ...    231
Number of shells                            ...     81
Maximum angular momentum                    ...      3
Integral batch strategy                     ... SHARK/LIBINT Hybrid
RI-J (if used) integral strategy            ... SPLIT-RIJ (Revised 2003 algorithm where possible)
Printlevel                                  ...      1
Contraction scheme used                     ... SEGMENTED contraction
Coulomb Range Separation                    ... NOT USED
Exchange Range Separation                   ... NOT USED
Finite Nucleus Model                        ... NOT USED
Auxiliary Coulomb fitting basis             ... AVAILABLE
   # of basis functions in Aux-J            ...    385
   # of shells in Aux-J                     ...    113
   Maximum angular momentum in Aux-J        ...      4
Auxiliary J/K fitting basis                 ... NOT available
Auxiliary Correlation fitting basis         ... NOT available
Auxiliary 'external' fitting basis          ... NOT available
Integral threshold                          ...     2.500000e-11
Primitive cut-off                           ...     2.500000e-12
Primitive pair pre-selection threshold      ...     2.500000e-12

Calculating pre-screening integrals         ... done (  0.0 sec) Dimension = 81
Organizing shell pair data                  ... done (  0.0 sec)
Shell pair information
Total number of shell pairs                 ...      3321
Shell pairs after pre-screening             ...      3013
Total number of primitive shell pairs       ...     12437
Primitive shell pairs kept                  ...      8238
          la=0 lb=0:    555 shell pairs
          la=1 lb=0:    729 shell pairs
          la=1 lb=1:    251 shell pairs
          la=2 lb=0:    512 shell pairs
          la=2 lb=1:    342 shell pairs
          la=2 lb=2:    128 shell pairs
          la=3 lb=0:    212 shell pairs
          la=3 lb=1:    150 shell pairs
          la=3 lb=2:    108 shell pairs
          la=3 lb=3:     26 shell pairs

Calculating one electron integrals          ... done (  0.0 sec)
Calculating RI/J V-Matrix + Cholesky decomp.... done (  0.0 sec)
Calculating Nuclear repulsion               ... done (  0.0 sec) ENN=    426.205656042730 Eh

SHARK setup successfully completed in   0.1 seconds

Maximum memory used throughout the entire GTOINT-calculation: 20.5 MB


           ************************************************************
           *        Program running with 4 parallel MPI-processes     *
           *              working on a common directory               *
           ************************************************************
-------------------------------------------------------------------------------
                                 ORCA SCF
-------------------------------------------------------------------------------

------------
SCF SETTINGS
------------
Hamiltonian:
 Density Functional     Method          .... DFT(GTOs)
 Exchange Functional    Exchange        .... PBE
   PBE kappa parameter   XKappa         ....  0.804000
   PBE mue parameter    XMuePBE         ....  0.219520
 Correlation Functional Correlation     .... PBE
   PBE beta parameter  CBetaPBE         ....  0.066725
 LDA part of GGA corr.  LDAOpt          .... PW91-LDA
 Gradients option       PostSCFGGA      .... off
 Hybrid DFT is turned on
   Fraction HF Exchange ScalHFX         ....  0.250000
   Scaling of DF-GGA-X  ScalDFX         ....  0.750000
   Scaling of DF-GGA-C  ScalDFC         ....  1.000000
   Scaling of DF-LDA-C  ScalLDAC        ....  1.000000
   Perturbative correction              ....  0.000000
   Density functional embedding theory  .... OFF
   NL short-range parameter             ....  6.900000
 RI-approximation to the Coulomb term is turned on
   Number of AuxJ basis functions       .... 385
   RIJ-COSX (HFX calculated with COS-X)).... on


General Settings:
 Integral files         IntName         .... cucn3
 Hartree-Fock type      HFTyp           .... RHF
 Total Charge           Charge          ....   -2
 Multiplicity           Mult            ....    1
 Number of Electrons    NEL             ....   70
 Basis Dimension        Dim             ....  231
 Nuclear Repulsion      ENuc            ....    426.2056560427 Eh

Convergence Acceleration:
 DIIS                   CNVDIIS         .... on
   Start iteration      DIISMaxIt       ....    12
   Startup error        DIISStart       ....  0.200000
   # of expansion vecs  DIISMaxEq       ....     5
   Bias factor          DIISBfac        ....   1.050
   Max. coefficient     DIISMaxC        ....  10.000
 Trust-Rad. Augm. Hess. CNVTRAH         .... auto
   Auto Start mean grad. ratio tolernc. ....  1.125000
   Auto Start start iteration           ....    20
   Auto Start num. interpolation iter.  ....    10
   Max. Number of Micro iterations      ....    16
   Max. Number of Macro iterations      .... Maxiter - #DIIS iter
   Number of Davidson start vectors     ....     2
   Converg. threshold I  (grad. norm)   ....   1.000e-05
   Converg. threshold II (energy diff.) ....   1.000e-08
   Grad. Scal. Fac. for Micro threshold ....   0.100
   Minimum threshold for Micro iter.    ....   0.010
   NR start threshold (gradient norm)   ....   0.001
   Initial trust radius                 ....   0.400
   Minimum AH scaling param. (alpha)    ....   1.000
   Maximum AH scaling param. (alpha)    .... 1000.000
   Orbital update algorithm             .... Taylor
   White noise on init. David. guess    .... on
   Maximum white noise                  ....   0.010
   Quad. conv. algorithm                .... NR
 SOSCF                  CNVSOSCF        .... off
 Level Shifting         CNVShift        .... on
   Level shift para.    LevelShift      ....    0.2500
   Turn off err/grad.   ShiftErr        ....    0.0010
 Zerner damping         CNVZerner       .... off
 Static damping         CNVDamp         .... on
   Fraction old density DampFac         ....    0.7000
   Max. Damping (<1)    DampMax         ....    0.9800
   Min. Damping (>=0)   DampMin         ....    0.0000
   Turn off err/grad.   DampErr         ....    0.1000
 Fernandez-Rico         CNVRico         .... off

SCF Procedure:
 Maximum # iterations   MaxIter         ....   125
 SCF integral mode      SCFMode         .... Direct
   Integral package                     .... SHARK and LIBINT hybrid scheme
 Reset frequency        DirectResetFreq ....    20
 Integral Threshold     Thresh          ....  2.500e-11 Eh
 Primitive CutOff       TCut            ....  2.500e-12 Eh

Convergence Tolerance:
 Convergence Check Mode ConvCheckMode   .... Total+1el-Energy
 Convergence forced     ConvForced      .... 0
 Energy Change          TolE            ....  1.000e-08 Eh
 1-El. energy change                    ....  1.000e-05 Eh
 DIIS Error             TolErr          ....  5.000e-07


Diagonalization of the overlap matrix:
Smallest eigenvalue                        ... 3.733e-04
Time for diagonalization                   ...    0.005 sec
Threshold for overlap eigenvalues          ... 1.000e-08
Number of eigenvalues below threshold      ... 0
Time for construction of square roots      ...    0.004 sec
Total time needed                          ...    0.009 sec

Time for model grid setup =    0.045 sec

------------------------------
INITIAL GUESS: MODEL POTENTIAL
------------------------------
Loading Hartree-Fock densities                     ... done
Calculating cut-offs                               ... done
Initializing the effective Hamiltonian             ... done
Setting up the integral package (SHARK)            ... done
Starting the Coulomb interaction                   ... done (   0.0 sec)
Reading the grid                                   ... done
Mapping shells                                     ... done
Starting the XC term evaluation                    ... done (   0.0 sec)
  promolecular density results
     # of electrons  =     68.000136518
     EX              =   -100.410880250
     EC              =     -2.635915959
     EX+EC           =   -103.046796209
Transforming the Hamiltonian                       ... done (   0.0 sec)
Diagonalizing the Hamiltonian                      ... done (   0.0 sec)
Back transforming the eigenvectors                 ... done (   0.0 sec)
Now organizing SCF variables                       ... done
                      ------------------
                      INITIAL GUESS DONE (   0.1 sec)
                      ------------------
-------------------
DFT GRID GENERATION
-------------------

General Integration Accuracy     IntAcc      ... 4.388
Radial Grid Type                 RadialGrid  ... OptM3 with GC (2021)
Angular Grid (max. ang.)         AngularGrid ... 4 (Lebedev-302)
Angular grid pruning method      GridPruning ... 4 (adaptive)
Weight generation scheme         WeightScheme... Becke
Basis function cutoff            BFCut       ... 1.0000e-11
Integration weight cutoff        WCut        ... 1.0000e-14
Angular grids for H and He will be reduced by one unit
Partially contracted basis set               ... off
Rotationally invariant grid construction     ... off

Total number of grid points                  ...    47740
Total number of batches                      ...      749
Average number of points per batch           ...       63
Average number of grid points per atom       ...     6820
Time for grid setup =    0.223 sec

--------------------
COSX GRID GENERATION
--------------------

GRIDX 1
-------
General Integration Accuracy     IntAcc      ... 3.816
Radial Grid Type                 RadialGrid  ... OptM3 with GC (2021)
Angular Grid (max. ang.)         AngularGrid ... 1 (Lebedev-50)
Angular grid pruning method      GridPruning ... 4 (adaptive)
Weight generation scheme         WeightScheme... Becke
Basis function cutoff            BFCut       ... 1.0000e-11
Integration weight cutoff        WCut        ... 1.0000e-14
Angular grids for H and He will be reduced by one unit
Partially contracted basis set               ... on
Rotationally invariant grid construction     ... off

Total number of grid points                  ...     5819
Total number of batches                      ...       94
Average number of points per batch           ...       61
Average number of grid points per atom       ...      831
UseSFitting                                  ... on

GRIDX 2
-------
General Integration Accuracy     IntAcc      ... 4.020
Radial Grid Type                 RadialGrid  ... OptM3 with GC (2021)
Angular Grid (max. ang.)         AngularGrid ... 2 (Lebedev-110)
Angular grid pruning method      GridPruning ... 4 (adaptive)
Weight generation scheme         WeightScheme... Becke
Basis function cutoff            BFCut       ... 1.0000e-11
Integration weight cutoff        WCut        ... 1.0000e-14
Angular grids for H and He will be reduced by one unit
Partially contracted basis set               ... on
Rotationally invariant grid construction     ... off

Total number of grid points                  ...    13788
Total number of batches                      ...      217
Average number of points per batch           ...       63
Average number of grid points per atom       ...     1970
UseSFitting                                  ... on

GRIDX 3
-------
General Integration Accuracy     IntAcc      ... 4.338
Radial Grid Type                 RadialGrid  ... OptM3 with GC (2021)
Angular Grid (max. ang.)         AngularGrid ... 3 (Lebedev-194)
Angular grid pruning method      GridPruning ... 4 (adaptive)
Weight generation scheme         WeightScheme... Becke
Basis function cutoff            BFCut       ... 1.0000e-11
Integration weight cutoff        WCut        ... 1.0000e-14
Angular grids for H and He will be reduced by one unit
Partially contracted basis set               ... on
Rotationally invariant grid construction     ... off

Total number of grid points                  ...    30825
Total number of batches                      ...      485
Average number of points per batch           ...       63
Average number of grid points per atom       ...     4404
UseSFitting                                  ... on

Time for X-Grid setup             =    0.188 sec

--------------
SCF ITERATIONS
--------------
ITER       Energy         Delta-E        Max-DP      RMS-DP      [F,P]     Damp
               ***  Starting incremental Fock matrix formation  ***
  0  -1918.0402465500   0.000000000000 0.17097782  0.00300794  0.2405609 0.7000
  1  -1918.2231772307  -0.182930680681 0.23945933  0.00387363  0.1227080 0.7000
                               ***Turning on DIIS***
  2  -1918.3061158522  -0.082938621502 0.56611029  0.00958394  0.0596401 0.0000
  3  -1918.4289084542  -0.122792601966 0.19335612  0.00291887  0.0672464 0.0000
  4  -1918.4583769946  -0.029468540379 0.08295784  0.00131791  0.0265646 0.0000
  5  -1918.4604234319  -0.002046437355 0.03293951  0.00058644  0.0171812 0.0000
  6  -1918.4606528832  -0.000229451247 0.00951968  0.00019599  0.0074893 0.0000
  7  -1918.4607568457  -0.000103962565 0.00303866  0.00006856  0.0027666 0.0000
  8  -1918.4607674892  -0.000010643475 0.00231959  0.00005133  0.0007748 0.0000
               *** Restarting incremental Fock matrix formation ***
                                   *** Resetting DIIS ***
  9  -1918.4607504041   0.000017085144 0.00089439  0.00001544  0.0001993 0.0000
 10  -1918.4607503149   0.000000089133 0.00016522  0.00000463  0.0003481 0.0000
 11  -1918.4607505116  -0.000000196717 0.00010412  0.00000216  0.0000936 0.0000
 12  -1918.4607505260  -0.000000014367 0.00008697  0.00000108  0.0001039 0.0000
 13  -1918.4607505267  -0.000000000663 0.00003272  0.00000057  0.0000266 0.0000
 14  -1918.4607505221   0.000000004592 0.00001310  0.00000021  0.0000054 0.0000
 15  -1918.4607505165   0.000000005596 0.00001120  0.00000015  0.0000017 0.0000
 16  -1918.4607505150   0.000000001474 0.00000493  0.00000009  0.0000016 0.0000
                            ***DIIS convergence achieved***

               *****************************************************
               *                     SUCCESS                       *
               *           SCF CONVERGED AFTER  17 CYCLES          *
               *****************************************************

Old exchange energy                            =    -25.378091778 Eh
New exchange energy                            =    -25.378111386 Eh
Exchange energy change after final integration =     -0.000019609 Eh
Total energy after final integration           =  -1918.460770118 Eh
Final COS-X integration done in                =     1.976 sec

----------------
TOTAL SCF ENERGY
----------------

Total Energy       :        -1918.46077012 Eh          -52203.97155 eV

Components:
Nuclear Repulsion  :          426.20565604 Eh           11597.64551 eV
Electronic Energy  :        -2344.66642616 Eh          -63801.61707 eV
One Electron Energy:        -3536.84300812 Eh          -96242.39112 eV
Two Electron Energy:         1192.17658196 Eh           32440.77405 eV
Max COSX asymmetry :            0.00000297 Eh               0.00008 eV

Virial components:
Potential Energy   :        -3836.43096204 Eh         -104394.59380 eV
Kinetic Energy     :         1917.97019192 Eh           52190.62224 eV
Virial Ratio       :            2.00025578


DFT components:
N(Alpha)           :       35.000003958226 electrons
N(Beta)            :       35.000003958226 electrons
N(Total)           :       70.000007916452 electrons
E(X)               :      -76.160475646281 Eh       
E(C)               :       -2.730465905386 Eh       
E(XC)              :      -78.890941551668 Eh       
DFET-embed. en.    :        0.000000000000 Eh       

---------------
SCF CONVERGENCE
---------------

  Last Energy change         ...    5.9738e-09  Tolerance :   1.0000e-08
  Last MAX-Density change    ...    0.0000e+00  Tolerance :   1.0000e-07
  Last RMS-Density change    ...    0.0000e+00  Tolerance :   5.0000e-09
  Last DIIS Error            ...    3.5321e-07  Tolerance :   5.0000e-07

             **** THE GBW FILE WAS UPDATED (cucn3.gbw) ****
             **** DENSITY cucn3.scfp WAS UPDATED ****
             **** ENERGY FILE WAS UPDATED (cucn3.en.tmp) ****
             **** THE GBW FILE WAS UPDATED (cucn3.gbw) ****
             **** DENSITY cucn3.scfp WAS UPDATED ****
----------------
ORBITAL ENERGIES
----------------

  NO   OCC          E(Eh)            E(eV) 
   0   2.0000    -323.018505     -8789.7804 
   1   2.0000     -38.638451     -1051.4057 
   2   2.0000     -33.805143      -919.8847 
   3   2.0000     -33.804396      -919.8644 
   4   2.0000     -33.802616      -919.8160 
   5   2.0000     -13.996931      -380.8759 
   6   2.0000     -13.996281      -380.8582 
   7   2.0000     -13.992416      -380.7530 
   8   2.0000      -9.850674      -268.0505 
   9   2.0000      -9.846110      -267.9263 
  10   2.0000      -9.842420      -267.8259 
  11   2.0000      -4.059189      -110.4562 
  12   2.0000      -2.540256       -69.1239 
  13   2.0000      -2.537963       -69.0615 
  14   2.0000      -2.530394       -68.8555 
  15   2.0000      -0.584577       -15.9071 
  16   2.0000      -0.580647       -15.8002 
  17   2.0000      -0.579302       -15.7636 
  18   2.0000      -0.174048        -4.7361 
  19   2.0000      -0.130544        -3.5523 
  20   2.0000      -0.128089        -3.4855 
  21   2.0000      -0.054497        -1.4829 
  22   2.0000      -0.050896        -1.3849 
  23   2.0000      -0.049389        -1.3440 
  24   2.0000      -0.047193        -1.2842 
  25   2.0000      -0.041241        -1.1222 
  26   2.0000      -0.028639        -0.7793 
  27   2.0000      -0.026224        -0.7136 
  28   2.0000      -0.013334        -0.3628 
  29   2.0000       0.003494         0.0951 
  30   2.0000       0.027437         0.7466 
  31   2.0000       0.034314         0.9337 
  32   2.0000       0.036119         0.9829 
  33   2.0000       0.094208         2.5635 
  34   2.0000       0.129183         3.5152 
  35   0.0000       0.305091         8.3019 
  36   0.0000       0.319965         8.7067 
  37   0.0000       0.376864        10.2550 
  38   0.0000       0.410649        11.1743 
  39   0.0000       0.419888        11.4257 
  40   0.0000       0.423024        11.5111 
  41   0.0000       0.434321        11.8185 
  42   0.0000       0.439331        11.9548 
  43   0.0000       0.459675        12.5084 
  44   0.0000       0.483389        13.1537 
  45   0.0000       0.525158        14.2903 
  46   0.0000       0.533964        14.5299 
  47   0.0000       0.535875        14.5819 
  48   0.0000       0.551866        15.0170 
  49   0.0000       0.563636        15.3373 
  50   0.0000       0.572218        15.5708 
  51   0.0000       0.597116        16.2483 
  52   0.0000       0.597185        16.2502 
  53   0.0000       0.603005        16.4086 
  54   0.0000       0.606684        16.5087 
  55   0.0000       0.623936        16.9782 
  56   0.0000       0.626744        17.0546 
  57   0.0000       0.643533        17.5114 
  58   0.0000       0.657639        17.8953 
  59   0.0000       0.684931        18.6379 
  60   0.0000       0.716462        19.4959 
  61   0.0000       0.776622        21.1330 
  62   0.0000       0.782029        21.2801 
  63   0.0000       0.792134        21.5551 
  64   0.0000       0.814179        22.1549 
  65   0.0000       0.819217        22.2920 
  66   0.0000       0.827901        22.5283 
  67   0.0000       0.828090        22.5335 
  68   0.0000       0.855325        23.2746 
  69   0.0000       0.865379        23.5482 
  70   0.0000       0.921547        25.0766 
  71   0.0000       0.956079        26.0162 
  72   0.0000       0.974126        26.5073 
  73   0.0000       1.001730        27.2585 
  74   0.0000       1.045636        28.4532 
  75   0.0000       1.074191        29.2302 
  76   0.0000       1.134083        30.8600 
  77   0.0000       1.144364        31.1397 
  78   0.0000       1.150259        31.3002 
  79   0.0000       1.157376        31.4938 
  80   0.0000       1.201343        32.6902 
  81   0.0000       1.217211        33.1220 
  82   0.0000       1.219689        33.1894 
  83   0.0000       1.244136        33.8547 
  84   0.0000       1.271339        34.5949 
  85   0.0000       1.287704        35.0402 
  86   0.0000       1.310632        35.6641 
  87   0.0000       1.342185        36.5227 
  88   0.0000       1.387578        37.7579 
  89   0.0000       1.390899        37.8483 
  90   0.0000       1.446073        39.3497 
  91   0.0000       1.509785        41.0833 
  92   0.0000       1.517656        41.2975 
  93   0.0000       1.525560        41.5126 
  94   0.0000       1.539864        41.9018 
  95   0.0000       1.553238        42.2658 
  96   0.0000       1.572062        42.7780 
  97   0.0000       1.590247        43.2728 
  98   0.0000       1.628670        44.3184 
  99   0.0000       1.629532        44.3418 
 100   0.0000       1.692071        46.0436 
 101   0.0000       1.695332        46.1323 
 102   0.0000       1.698169        46.2095 
 103   0.0000       1.777191        48.3598 
 104   0.0000       1.799129        48.9568 
 105   0.0000       1.816770        49.4368 
 106   0.0000       1.828802        49.7642 
 107   0.0000       1.837899        50.0118 
 108   0.0000       1.875253        51.0282 
 109   0.0000       1.886703        51.3398 
 110   0.0000       1.942623        52.8615 
 111   0.0000       1.953466        53.1565 
 112   0.0000       1.963142        53.4198 
 113   0.0000       1.974563        53.7306 
 114   0.0000       1.995242        54.2933 
 115   0.0000       2.042445        55.5778 
 116   0.0000       2.063204        56.1426 
 117   0.0000       2.106481        57.3203 
 118   0.0000       2.106975        57.3337 
 119   0.0000       2.249389        61.2090 
 120   0.0000       2.282327        62.1053 
 121   0.0000       2.316828        63.0441 
 122   0.0000       2.415565        65.7309 
 123   0.0000       2.445073        66.5338 
 124   0.0000       2.465062        67.0777 
 125   0.0000       2.528451        68.8026 
 126   0.0000       2.651449        72.1496 
 127   0.0000       2.677718        72.8644 
 128   0.0000       2.698365        73.4263 
 129   0.0000       2.730385        74.2976 
 130   0.0000       2.736006        74.4505 
 131   0.0000       2.763162        75.1894 
 132   0.0000       2.788633        75.8826 
 133   0.0000       2.815307        76.6084 
 134   0.0000       2.860780        77.8458 
 135   0.0000       2.984787        81.2202 
 136   0.0000       3.007606        81.8411 
 137   0.0000       3.042074        82.7790 
 138   0.0000       3.048606        82.9568 
 139   0.0000       3.073200        83.6260 
 140   0.0000       3.085713        83.9665 
 141   0.0000       3.127776        85.1111 
 142   0.0000       3.147010        85.6345 
 143   0.0000       3.190408        86.8154 
 144   0.0000       3.205434        87.2243 
 145   0.0000       3.265944        88.8709 
 146   0.0000       3.292101        89.5826 
 147   0.0000       3.374362        91.8211 
 148   0.0000       3.386309        92.1462 
 149   0.0000       3.399246        92.4982 
 150   0.0000       3.405010        92.6550 
 151   0.0000       3.416489        92.9674 
 152   0.0000       3.429454        93.3202 
 153   0.0000       3.443390        93.6994 
 154   0.0000       3.449957        93.8781 
 155   0.0000       3.485020        94.8322 
 156   0.0000       3.487634        94.9033 
 157   0.0000       3.548731        96.5659 
 158   0.0000       3.566318        97.0444 
 159   0.0000       3.582989        97.4981 
 160   0.0000       3.622535        98.5742 
 161   0.0000       3.677492       100.0697 
 162   0.0000       3.690848       100.4331 
 163   0.0000       3.715814       101.1124 
 164   0.0000       3.733145       101.5840 
 165   0.0000       3.749499       102.0290 
 166   0.0000       3.751208       102.0756 
 167   0.0000       3.781999       102.9134 
 168   0.0000       3.826758       104.1314 
 169   0.0000       3.848573       104.7250 
 170   0.0000       3.859474       105.0216 
 171   0.0000       4.126280       112.2818 
 172   0.0000       4.157608       113.1343 
 173   0.0000       4.194714       114.1440 
 174   0.0000       4.232934       115.1840 
 175   0.0000       4.246729       115.5594 
 176   0.0000       4.338107       118.0459 
 177   0.0000       4.350571       118.3851 
 178   0.0000       4.355813       118.5277 
 179   0.0000       4.367847       118.8552 
 180   0.0000       4.372900       118.9927 
 181   0.0000       4.373692       119.0142 
 182   0.0000       4.453803       121.1941 
 183   0.0000       4.562775       124.1594 
 184   0.0000       4.614449       125.5655 
 185   0.0000       4.665745       126.9614 
 186   0.0000       4.783417       130.1634 
 187   0.0000       4.864636       132.3735 
 188   0.0000       4.909195       133.5860 
 189   0.0000       4.916627       133.7882 
 190   0.0000       4.937547       134.3575 
 191   0.0000       4.984381       135.6319 
 192   0.0000       4.997285       135.9831 
 193   0.0000       5.007424       136.2589 
 194   0.0000       5.017174       136.5243 
 195   0.0000       5.047324       137.3447 
 196   0.0000       5.062203       137.7496 
 197   0.0000       5.169438       140.6676 
 198   0.0000       5.205972       141.6617 
 199   0.0000       5.286298       143.8475 
 200   0.0000       5.301015       144.2480 
 201   0.0000       5.316018       144.6562 
 202   0.0000       5.338513       145.2683 
 203   0.0000       5.569783       151.5615 
 204   0.0000       5.611992       152.7101 
 205   0.0000       5.675160       154.4290 
 206   0.0000       5.752794       156.5415 
 207   0.0000       5.811616       158.1421 
 208   0.0000       5.849328       159.1683 
 209   0.0000       5.881665       160.0482 
 210   0.0000       5.885656       160.1568 
 211   0.0000       5.939948       161.6342 
 212   0.0000       5.995003       163.1323 
 213   0.0000       6.005928       163.4296 
 214   0.0000       6.074883       165.3060 
 215   0.0000       6.322902       172.0549 
 216   0.0000       6.341787       172.5688 
 217   0.0000       6.365211       173.2062 
 218   0.0000       6.390965       173.9070 
 219   0.0000       6.402115       174.2104 
 220   0.0000       6.437799       175.1814 
 221   0.0000       6.481953       176.3829 
 222   0.0000       6.601158       179.6266 
 223   0.0000       6.664988       181.3636 
 224   0.0000       6.888601       187.4484 
 225   0.0000      22.890851       622.8917 
 226   0.0000      23.002505       625.9300 
 227   0.0000      23.117104       629.0484 
 228   0.0000      32.513510       884.7376 
 229   0.0000      32.523905       885.0205 
 230   0.0000      32.588651       886.7823 

                    ********************************
                    * MULLIKEN POPULATION ANALYSIS *
                    ********************************

-----------------------
MULLIKEN ATOMIC CHARGES
-----------------------
   0 Cu:    0.613946
   1 C :   -0.920324
   2 N :    0.071783
   3 C :   -0.977436
   4 N :    0.083366
   5 C :   -0.963299
   6 N :    0.091964
Sum of atomic charges:   -2.0000000

--------------------------------
MULLIKEN REDUCED ORBITAL CHARGES
--------------------------------
  0 Cus       :     6.741605  s :     6.741605
      pz      :     4.033128  p :    12.147265
      px      :     4.071173
      py      :     4.042964
      dz2     :     1.905431  d :     9.496593
      dxz     :     1.936655
      dyz     :     1.919570
      dx2y2   :     1.839587
      dxy     :     1.895350
      f0      :     0.000036  f :     0.000591
      f+1     :     0.000086
      f-1     :     0.000091
      f+2     :     0.000030
      f-2     :     0.000029
      f+3     :     0.000150
      f-3     :     0.000169
  1 C s       :     3.840023  s :     3.840023
      pz      :     0.845092  p :     2.987415
      px      :     1.066186
      py      :     1.076136
      dz2     :     0.008199  d :     0.076278
      dxz     :     0.015112
      dyz     :     0.011363
      dx2y2   :     0.022259
      dxy     :     0.019345
      f0      :     0.002515  f :     0.016609
      f+1     :     0.000566
      f-1     :     0.001313
      f+2     :     0.001146
      f-2     :     0.002746
      f+3     :     0.005359
      f-3     :     0.002964
  2 N s       :     3.212739  s :     3.212739
      pz      :     1.141974  p :     3.670721
      px      :     1.254923
      py      :     1.273824
      dz2     :     0.001936  d :     0.042418
      dxz     :     0.011403
      dyz     :     0.005202
      dx2y2   :     0.015570
      dxy     :     0.008306
      f0      :     0.000375  f :     0.002338
      f+1     :    -0.000005
      f-1     :     0.000068
      f+2     :     0.000055
      f-2     :     0.000670
      f+3     :     0.001049
      f-3     :     0.000125
  3 C s       :     3.933490  s :     3.933490
      pz      :     0.836570  p :     2.955069
      px      :     1.277694
      py      :     0.840805
      dz2     :     0.008487  d :     0.072979
      dxz     :     0.019742
      dyz     :     0.005931
      dx2y2   :     0.013882
      dxy     :     0.024936
      f0      :     0.002492  f :     0.015898
      f+1     :     0.001395
      f-1     :     0.000443
      f+2     :     0.002553
      f-2     :     0.001275
      f+3     :     0.004905
      f-3     :     0.002836
  4 N s       :     3.176004  s :     3.176004
      pz      :     1.148764  p :     3.696618
      px      :     1.354227
      py      :     1.193627
      dz2     :     0.001873  d :     0.041696
      dxz     :     0.013391
      dyz     :     0.003076
      dx2y2   :     0.014026
      dxy     :     0.009330
      f0      :     0.000372  f :     0.002317
      f+1     :     0.000036
      f-1     :     0.000024
      f+2     :     0.000376
      f-2     :     0.000347
      f+3     :     0.001045
      f-3     :     0.000116
  5 C s       :     3.895575  s :     3.895575
      pz      :     0.843095  p :     2.977196
      px      :     1.260741
      py      :     0.873360
      dz2     :     0.008598  d :     0.074330
      dxz     :     0.022475
      dyz     :     0.003647
      dx2y2   :     0.025545
      dxy     :     0.014065
      f0      :     0.002512  f :     0.016198
      f+1     :     0.001077
      f-1     :     0.000798
      f+2     :     0.002174
      f-2     :     0.001690
      f+3     :     0.002801
      f-3     :     0.005147
  6 N s       :     3.198692  s :     3.198692
      pz      :     1.144887  p :     3.665067
      px      :     1.352661
      py      :     1.167519
      dz2     :     0.001897  d :     0.041966
      dxz     :     0.016334
      dyz     :     0.000113
      dx2y2   :     0.005740
      dxy     :     0.017882
      f0      :     0.000375  f :     0.002311
      f+1     :     0.000000
      f-1     :     0.000063
      f+2     :     0.000673
      f-2     :     0.000044
      f+3     :     0.000076
      f-3     :     0.001080


                     *******************************
                     * LOEWDIN POPULATION ANALYSIS *
                     *******************************

----------------------
LOEWDIN ATOMIC CHARGES
----------------------
   0 Cu:   -0.076132
   1 C :   -0.544920
   2 N :   -0.078873
   3 C :   -0.566386
   4 N :   -0.098838
   5 C :   -0.555770
   6 N :   -0.079080

-------------------------------
LOEWDIN REDUCED ORBITAL CHARGES
-------------------------------
  0 Cus       :     6.362113  s :     6.362113
      pz      :     4.047397  p :    12.773104
      px      :     4.348956
      py      :     4.376751
      dz2     :     1.965805  d :     9.939690
      dxz     :     1.973912
      dyz     :     1.942505
      dx2y2   :     2.012550
      dxy     :     2.044918
      f0      :     0.000052  f :     0.001225
      f+1     :     0.000197
      f-1     :     0.000207
      f+2     :     0.000046
      f-2     :     0.000046
      f+3     :     0.000311
      f-3     :     0.000368
  1 C s       :     3.061351  s :     3.061351
      pz      :     0.795505  p :     2.964252
      px      :     1.126662
      py      :     1.042084
      dz2     :     0.043547  d :     0.429685
      dxz     :     0.049982
      dyz     :     0.058432
      dx2y2   :     0.145063
      dxy     :     0.132662
      f0      :     0.008437  f :     0.089633
      f+1     :     0.005613
      f-1     :     0.008485
      f+2     :     0.005902
      f-2     :     0.011397
      f+3     :     0.029623
      f-3     :     0.020176
  2 N s       :     3.262641  s :     3.262641
      pz      :     1.053902  p :     3.695943
      px      :     1.395425
      py      :     1.246616
      dz2     :     0.012243  d :     0.102149
      dxz     :     0.017015
      dyz     :     0.008608
      dx2y2   :     0.028451
      dxy     :     0.035833
      f0      :     0.001585  f :     0.018140
      f+1     :     0.002371
      f-1     :     0.001354
      f+2     :     0.000253
      f-2     :     0.002460
      f+3     :     0.004417
      f-3     :     0.005701
  3 C s       :     3.073570  s :     3.073570
      pz      :     0.790374  p :     2.968670
      px      :     1.280403
      py      :     0.897893
      dz2     :     0.045100  d :     0.436194
      dxz     :     0.094874
      dyz     :     0.013913
      dx2y2   :     0.121973
      dxy     :     0.160334
      f0      :     0.008436  f :     0.087953
      f+1     :     0.011346
      f-1     :     0.002771
      f+2     :     0.007678
      f-2     :     0.009643
      f+3     :     0.028160
      f-3     :     0.019919
  4 N s       :     3.262378  s :     3.262378
      pz      :     1.056146  p :     3.718777
      px      :     1.485321
      py      :     1.177310
      dz2     :     0.012259  d :     0.099855
      dxz     :     0.020682
      dyz     :     0.004222
      dx2y2   :     0.031016
      dxy     :     0.031676
      f0      :     0.001547  f :     0.017829
      f+1     :     0.002905
      f-1     :     0.000806
      f+2     :     0.001242
      f-2     :     0.001407
      f+3     :     0.004269
      f-3     :     0.005653
  5 C s       :     3.068900  s :     3.068900
      pz      :     0.792714  p :     2.968169
      px      :     1.331526
      py      :     0.843929
      dz2     :     0.044490  d :     0.430149
      dxz     :     0.092360
      dyz     :     0.016319
      dx2y2   :     0.156426
      dxy     :     0.120554
      f0      :     0.008460  f :     0.088552
      f+1     :     0.010097
      f-1     :     0.004042
      f+2     :     0.012446
      f-2     :     0.004888
      f+3     :     0.019812
      f-3     :     0.028808
  6 N s       :     3.263707  s :     3.263707
      pz      :     1.055753  p :     3.696415
      px      :     1.566459
      py      :     1.074203
      dz2     :     0.012276  d :     0.100982
      dxz     :     0.025062
      dyz     :     0.000186
      dx2y2   :     0.035909
      dxy     :     0.027548
      f0      :     0.001564  f :     0.017976
      f+1     :     0.003427
      f-1     :     0.000295
      f+2     :     0.002574
      f-2     :     0.000098
      f+3     :     0.005711
      f-3     :     0.004308


                      *****************************
                      * MAYER POPULATION ANALYSIS *
                      *****************************

  NA   - Mulliken gross atomic population
  ZA   - Total nuclear charge
  QA   - Mulliken gross atomic charge
  VA   - Mayer's total valence
  BVA  - Mayer's bonded valence
  FA   - Mayer's free valence

  ATOM       NA         ZA         QA         VA         BVA        FA
  0 Cu    28.3861    29.0000     0.6139     1.7835     1.7835    -0.0000
  1 C      6.9203     6.0000    -0.9203     3.7040     3.7040    -0.0000
  2 N      6.9282     7.0000     0.0718     2.9649     2.9649    -0.0000
  3 C      6.9774     6.0000    -0.9774     3.5312     3.5312    -0.0000
  4 N      6.9166     7.0000     0.0834     2.8476     2.8476    -0.0000
  5 C      6.9633     6.0000    -0.9633     3.5867     3.5867     0.0000
  6 N      6.9080     7.0000     0.0920     2.9002     2.9002     0.0000

  Mayer bond orders larger than 0.100000
B(  0-Cu,  1-C ) :   0.6691 B(  0-Cu,  3-C ) :   0.6288 B(  0-Cu,  5-C ) :   0.6237 
B(  1-C ,  2-N ) :   3.0142 B(  3-C ,  4-N ) :   2.8988 B(  5-C ,  6-N ) :   2.9638 


-------
TIMINGS
-------

Total SCF time: 0 days 0 hours 0 min 16 sec 

Total time                  ....      16.684 sec
Sum of individual times     ....      16.538 sec  ( 99.1%)

Fock matrix formation       ....      15.774 sec  ( 94.5%)
  Split-RI-J                ....       1.324 sec  (  8.4% of F)
  Chain of spheres X        ....      12.425 sec  ( 78.8% of F)
  XC integration            ....       1.982 sec  ( 12.6% of F)
    Basis function eval.    ....       0.548 sec  ( 27.6% of XC)
    Density eval.           ....       0.549 sec  ( 27.7% of XC)
    XC-Functional eval.     ....       0.090 sec  (  4.5% of XC)
    XC-Potential eval.      ....       0.662 sec  ( 33.4% of XC)
Diagonalization             ....       0.132 sec  (  0.8%)
Density matrix formation    ....       0.005 sec  (  0.0%)
Population analysis         ....       0.006 sec  (  0.0%)
Initial guess               ....       0.086 sec  (  0.5%)
Orbital Transformation      ....       0.000 sec  (  0.0%)
Orbital Orthonormalization  ....       0.000 sec  (  0.0%)
DIIS solution               ....       0.078 sec  (  0.5%)
Grid generation             ....       0.457 sec  (  2.7%)

Maximum memory used throughout the entire SCF-calculation: 70.8 MB

-------------------------   --------------------
FINAL SINGLE POINT ENERGY     -1918.460770117649
-------------------------   --------------------



           ************************************************************
           *        Program running with 4 parallel MPI-processes     *
           *              working on a common directory               *
           ************************************************************
------------------------------------------------------------------------------
                         ORCA SCF GRADIENT CALCULATION
------------------------------------------------------------------------------

 ... reading COSX grid (gridx3)
Gradient of the Kohn-Sham DFT energy:
Kohn-Sham wavefunction type      ... RKS
Hartree-Fock exchange scaling    ...    0.250
Number of operators              ...    1
Number of atoms                  ...    7
Basis set dimensions             ...  231
Integral neglect threshold       ... 2.5e-11
Integral primitive cutoff        ... 2.5e-12
SHARK Integral package           ... ON

Nuc. rep. gradient       (SHARK) ... done (  0.0 sec)
HCore & Overlap gradient (SHARK) ... done (  0.0 sec)
RI-J gradient            (SHARK) ... done (  0.4 sec)
COSX-gradient                    ... done (  2.3 sec)
Exchange-correlation gradient    ... done

------------------
CARTESIAN GRADIENT
------------------

   1   Cu  :   -0.020624314   -0.010706740   -0.000413113
   2   C   :   -0.066709890    0.016388865    0.000110693
   3   N   :    0.125230559    0.123757884    0.000030973
   4   C   :   -0.005565708   -0.086953930   -0.000361095
   5   N   :   -0.170523682    0.055848327    0.000505137
   6   C   :   -0.033946717   -0.061217780   -0.000348204
   7   N   :    0.172174959   -0.036963631    0.000487847

Difference to translation invariance:
           :    0.0000352074    0.0001529934    0.0000122388

Difference to rotation invariance:
           :    0.0000061045   -0.0000057615   -0.0005020378

Norm of the cartesian gradient     ...    0.3346016801
RMS gradient                       ...    0.0730160727
MAX gradient                       ...    0.1721749593

-------
TIMINGS
-------

Total SCF gradient time            ...        3.463 sec

One electron gradient       ....       0.035 sec  (  1.0%)
RI-J Coulomb gradient       ....       0.417 sec  ( 12.0%)
COSX gradient               ....       2.258 sec  ( 65.2%)
XC gradient                 ....       0.560 sec  ( 16.2%)

Maximum memory used throughout the entire SCFGRAD-calculation: 43.8 MB
------------------------------------------------------------------------------
                         ORCA GEOMETRY RELAXATION STEP
------------------------------------------------------------------------------

Reading the OPT-File                    .... done
Getting information on internals        .... done
Copying old internal coords+grads       .... done
Making the new internal coordinates     .... (new redundants).... done
Validating the new internal coordinates .... (new redundants).... done
Calculating the B-matrix                .... done
Calculating the G,G- and P matrices     .... done
Transforming gradient to internals      .... done
Projecting the internal gradient        .... done
Number of atoms                         ....   7
Number of internal coordinates          ....  54
Current Energy                          .... -1918.460770118 Eh
Current gradient norm                   ....     0.334601680 Eh/bohr
Maximum allowed component of the step   ....  0.300
Current trust radius                    ....  0.300
Evaluating the initial hessian          ....  (Almloef) done
Projecting the Hessian                  .... done
Forming the augmented Hessian           .... done
Diagonalizing the augmented Hessian     .... done
Last element of RFO vector              ....  0.946086136
Lowest eigenvalues of augmented Hessian:
 -0.081199708  0.011381759  0.014397258  0.014964358  0.017277848
Length of the computed step             ....  0.342373844
Warning: the length of the step is outside the trust region - taking restricted step instead
The input lambda is                     ....    -0.081200
   iter:   1  x=   -0.150410  g=    0.393290 f(x)=     0.027220
   iter:   2  x=   -0.166611  g=    0.274729 f(x)=     0.004451
   iter:   3  x=   -0.167268  g=    0.254448 f(x)=     0.000167
   iter:   4  x=   -0.167269  g=    0.253670 f(x)=     0.000000
   iter:   5  x=   -0.167269  g=    0.253669 f(x)=     0.000000
   iter:   6  x=   -0.167269  g=    0.253669 f(x)=     0.000000
The output lambda is                    ....    -0.167269 (6 iterations)
The final length of the internal step   ....  0.300000000
Converting the step to cartesian space:
 Initial RMS(Int)=    0.0408248290
Transforming coordinates:
 Iter   0:  RMS(Cart)=    0.0562498149 RMS(Int)=    1.4814915509
 Iter   1:  RMS(Cart)=    0.0002313938 RMS(Int)=    0.0001830439
 Iter   2:  RMS(Cart)=    0.0000071848 RMS(Int)=    0.0000053842
 Iter   3:  RMS(Cart)=    0.0000002089 RMS(Int)=    0.0000001455
 Iter   4:  RMS(Cart)=    0.0000000061 RMS(Int)=    0.0000000040
done
Storing new coordinates                 .... done

                                .--------------------.
          ----------------------|Geometry convergence|-------------------------
          Item                value                   Tolerance       Converged
          ---------------------------------------------------------------------
          RMS gradient        0.0351385232            0.0001000000      NO
          MAX gradient        0.1120638031            0.0003000000      NO
          RMS step            0.0408248290            0.0020000000      NO
          MAX step            0.1422114477            0.0040000000      NO
          ........................................................
          Max(Bonds)      0.0753      Max(Angles)    1.31
          Max(Dihed)        0.01      Max(Improp)    0.00
          ---------------------------------------------------------------------

The optimization has not yet converged - more geometry cycles are needed


    ---------------------------------------------------------------------------
                         Redundant Internal Coordinates
                            (Angstroem and degrees)

        Definition                    Value    dE/dq     Step     New-Value
    ----------------------------------------------------------------------------
     1. B(C   1,Cu  0)                1.6500 -0.050936  0.0243    1.6742   
     2. B(N   2,Cu  0)                2.5980 -0.104873  0.0735    2.6715   
     3. B(N   2,C   1)                1.1077 -0.075801  0.0436    1.1513   
     4. B(C   3,Cu  0)                1.6500 -0.071958  0.0299    1.6799   
     5. B(N   4,C   3)                1.1077 -0.073446  0.0447    1.1524   
     6. B(N   4,Cu  0)                2.5980 -0.112064  0.0745    2.6725   
     7. B(C   5,Cu  0)                1.6500 -0.063951  0.0277    1.6777   
     8. B(N   6,C   5)                1.1077 -0.071244  0.0433    1.1510   
     9. B(N   6,Cu  0)                2.5980 -0.109795  0.0753    2.6732   
    10. A(C   3,Cu  0,N   6)          135.90 -0.002306    0.19    136.09   
    11. A(N   4,Cu  0,N   6)          151.81 -0.015410    0.16    151.97   
    12. A(N   2,Cu  0,C   3)          135.91 -0.011032   -0.20    135.71   
    13. A(C   5,Cu  0,N   6)           15.91 -0.009981   -0.22     15.68   
    14. A(C   1,Cu  0,N   4)          104.10  0.011595    0.09    104.19   
    15. A(N   2,Cu  0,N   4)          120.00  0.002072   -0.17    119.83   
    16. A(C   3,Cu  0,N   4)           15.91 -0.013105   -0.02     15.89   
    17. A(C   1,Cu  0,C   3)          120.00 -0.001509    0.07    120.07   
    18. A(C   1,Cu  0,N   2)           15.90 -0.009523   -0.27     15.64   
    19. A(C   1,Cu  0,C   5)          120.00 -0.006166   -0.48    119.52   
    20. A(N   2,Cu  0,C   5)          104.10  0.003357   -0.21    103.88   
    21. A(C   3,Cu  0,C   5)          120.00  0.007675    0.41    120.41   
    22. A(N   4,Cu  0,C   5)          135.90 -0.005430    0.39    136.29   
    23. A(C   1,Cu  0,N   6)          104.09  0.003815   -0.25    103.84   
    24. A(N   2,Cu  0,N   6)           88.19  0.013338    0.01     88.20   
    25. A(Cu  0,C   1,N   2)          140.00  0.015579    1.31    141.32   
    26. A(Cu  0,N   2,C   1)           24.09 -0.006056   -1.05     23.04   
    27. A(Cu  0,C   3,N   4)          140.00  0.028298    0.63    140.62   
    28. A(Cu  0,N   4,C   3)           24.10 -0.015194   -0.60     23.49   
    29. A(Cu  0,C   5,N   6)          140.00  0.019594    1.14    141.14   
    30. A(Cu  0,N   6,C   5)           24.09 -0.009614   -0.92     23.17   
    31. D(N   2,C   1,Cu  0,N   4)    180.00  0.000034   -0.00    180.00   
    32. D(N   2,C   1,Cu  0,N   6)     -0.28 -0.000040    0.00     -0.27   
    33. D(N   2,C   1,Cu  0,C   5)     -0.27 -0.000043    0.01     -0.26   
    34. D(N   2,C   1,Cu  0,C   3)   -180.00  0.000038   -0.01   -180.01   
    35. D(C   1,N   2,Cu  0,C   5)    179.76 -0.000058    0.01    179.76   
    36. D(C   1,N   2,Cu  0,C   3)      0.00  0.000047   -0.01     -0.01   
    37. D(C   1,N   2,Cu  0,N   6)    179.73 -0.000032    0.00    179.74   
    38. D(C   1,N   2,Cu  0,N   4)     -0.00  0.000038   -0.00     -0.00   
    39. D(N   4,C   3,Cu  0,N   6)   -179.62  0.000070   -0.00   -179.62   
    40. D(N   4,C   3,Cu  0,C   5)   -179.73  0.000103   -0.00   -179.73   
    41. D(N   4,C   3,Cu  0,N   2)     -0.00 -0.000032    0.01      0.01   
    42. D(N   4,C   3,Cu  0,C   1)     -0.00 -0.000017    0.01      0.01   
    43. D(C   3,N   4,Cu  0,C   5)      0.34  0.000069   -0.00      0.34   
    44. D(C   3,N   4,Cu  0,N   2)    180.00 -0.000026    0.01    180.01   
    45. D(C   3,N   4,Cu  0,C   1)    180.00 -0.000015    0.01    180.01   
    46. D(C   3,N   4,Cu  0,N   6)      0.56 -0.000156   -0.00      0.56   
    47. D(N   6,C   5,Cu  0,N   4)    179.61 -0.000045    0.00    179.61   
    48. D(N   6,C   5,Cu  0,C   3)    179.72 -0.000101    0.00    179.72   
    49. D(N   6,C   5,Cu  0,N   2)     -0.09  0.000037   -0.01     -0.10   
    50. D(N   6,C   5,Cu  0,C   1)     -0.01  0.000006   -0.01     -0.02   
    51. D(C   5,N   6,Cu  0,N   4)     -0.57  0.000165    0.00     -0.57   
    52. D(C   5,N   6,Cu  0,C   3)     -0.35 -0.000084    0.00     -0.35   
    53. D(C   5,N   6,Cu  0,N   2)    179.92  0.000038   -0.01    179.91   
    54. D(C   5,N   6,Cu  0,C   1)    179.99  0.000005   -0.01    179.98   
    ----------------------------------------------------------------------------

         *************************************************************
         *                GEOMETRY OPTIMIZATION CYCLE   2            *
         *************************************************************
---------------------------------
CARTESIAN COORDINATES (ANGSTROEM)
---------------------------------
  Cu     0.103114    0.106866    0.001770
  C     -0.313151   -1.514731   -0.001172
  N     -1.233649   -2.206182   -0.000996
  C      1.720472    0.560773   -0.000156
  N      2.775626    0.097482   -0.003248
  C     -1.105542    1.270328    0.000043
  N     -2.252069    1.371565   -0.003041

----------------------------
CARTESIAN COORDINATES (A.U.)
----------------------------
  NO LB      ZA    FRAG     MASS         X           Y           Z
   0 Cu   29.0000    0    63.550    0.194858    0.201947    0.003345
   1 C     6.0000    0    12.011   -0.591770   -2.862427   -0.002215
   2 N     7.0000    0    14.007   -2.331260   -4.169081   -0.001883
   3 C     6.0000    0    12.011    3.251220    1.059708   -0.000294
   4 N     7.0000    0    14.007    5.245173    0.184214   -0.006138
   5 C     6.0000    0    12.011   -2.089172    2.400571    0.000080
   6 N     7.0000    0    14.007   -4.255794    2.591882   -0.005746

--------------------------------
INTERNAL COORDINATES (ANGSTROEM)
--------------------------------
 Cu     0   0   0     0.000000000000     0.00000000     0.00000000
 C      1   0   0     1.674174940249     0.00000000     0.00000000
 N      2   1   0     1.151269744485   141.30968865     0.00000000
 C      1   2   3     1.679845341757   120.07347949   179.99449969
 N      4   1   2     1.152388574948   140.61824717     0.00000000
 C      1   2   3     1.677646283817   119.51130802   359.73549078
 N      6   1   2     1.150992385784   141.13752424     0.00000000

---------------------------
INTERNAL COORDINATES (A.U.)
---------------------------
 Cu     0   0   0     0.000000000000     0.00000000     0.00000000
 C      1   0   0     3.163732137344     0.00000000     0.00000000
 N      2   1   0     2.175584523346   141.30968865     0.00000000
 C      1   2   3     3.174447643264   120.07347949   179.99449969
 N      4   1   2     2.177698806511   140.61824717     0.00000000
 C      1   2   3     3.170292026005   119.51130802   359.73549078
 N      6   1   2     2.175060391360   141.13752424     0.00000000



           ************************************************************
           *        Program running with 4 parallel MPI-processes     *
           *              working on a common directory               *
           ************************************************************
------------------------------------------------------------------------------
                   ___                                                        
                  /   \      - P O W E R E D   B Y -                         
                 /     \                                                     
                 |  |  |   _    _      __       _____    __    __             
                 |  |  |  | |  | |    /  \     |  _  \  |  |  /  |          
                  \  \/   | |  | |   /    \    | | | |  |  | /  /          
                 / \  \   | |__| |  /  /\  \   | |_| |  |  |/  /          
                |  |  |   |  __  | /  /__\  \  |    /   |      \           
                |  |  |   | |  | | |   __   |  |    \   |  |\   \          
                \     /   | |  | | |  |  |  |  | |\  \  |  | \   \       
                 \___/    |_|  |_| |__|  |__|  |_| \__\ |__|  \__/        
                                                                              
                      - O R C A' S   B I G   F R I E N D -                    
                                      &                                       
                       - I N T E G R A L  F E E D E R -                       
                                                                              
 v1 FN, 2020, v2 2021                                                         
------------------------------------------------------------------------------


Reading SHARK input file cucn3.SHARKINP.tmp ... ok
----------------------
SHARK INTEGRAL PACKAGE
----------------------

Number of atoms                             ...      7
Number of basis functions                   ...    231
Number of shells                            ...     81
Maximum angular momentum                    ...      3
Integral batch strategy                     ... SHARK/LIBINT Hybrid
RI-J (if used) integral strategy            ... SPLIT-RIJ (Revised 2003 algorithm where possible)
Printlevel                                  ...      1
Contraction scheme used                     ... SEGMENTED contraction
Coulomb Range Separation                    ... NOT USED
Exchange Range Separation                   ... NOT USED
Finite Nucleus Model                        ... NOT USED
Auxiliary Coulomb fitting basis             ... AVAILABLE
   # of basis functions in Aux-J            ...    385
   # of shells in Aux-J                     ...    113
   Maximum angular momentum in Aux-J        ...      4
Auxiliary J/K fitting basis                 ... NOT available
Auxiliary Correlation fitting basis         ... NOT available
Auxiliary 'external' fitting basis          ... NOT available
Integral threshold                          ...     2.500000e-11
Primitive cut-off                           ...     2.500000e-12
Primitive pair pre-selection threshold      ...     2.500000e-12

Calculating pre-screening integrals         ... done (  0.0 sec) Dimension = 81
Organizing shell pair data                  ... done (  0.0 sec)
Shell pair information
Total number of shell pairs                 ...      3321
Shell pairs after pre-screening             ...      2991
Total number of primitive shell pairs       ...     12437
Primitive shell pairs kept                  ...      8142
          la=0 lb=0:    550 shell pairs
          la=1 lb=0:    726 shell pairs
          la=1 lb=1:    251 shell pairs
          la=2 lb=0:    510 shell pairs
          la=2 lb=1:    333 shell pairs
          la=2 lb=2:    128 shell pairs
          la=3 lb=0:    209 shell pairs
          la=3 lb=1:    150 shell pairs
          la=3 lb=2:    108 shell pairs
          la=3 lb=3:     26 shell pairs

Calculating one electron integrals          ... done (  0.0 sec)
Calculating RI/J V-Matrix + Cholesky decomp.... done (  0.0 sec)
Calculating Nuclear repulsion               ... done (  0.0 sec) ENN=    416.051293912553 Eh

SHARK setup successfully completed in   0.2 seconds

Maximum memory used throughout the entire GTOINT-calculation: 20.5 MB


           ************************************************************
           *        Program running with 4 parallel MPI-processes     *
           *              working on a common directory               *
           ************************************************************

Diagonalization of the overlap matrix:
Smallest eigenvalue                        ... 4.263e-04
Time for diagonalization                   ...    0.005 sec
Threshold for overlap eigenvalues          ... 1.000e-08
Number of eigenvalues below threshold      ... 0
Time for construction of square roots      ...    0.004 sec
Total time needed                          ...    0.009 sec

-------------------
DFT GRID GENERATION
-------------------

General Integration Accuracy     IntAcc      ... 4.388
Radial Grid Type                 RadialGrid  ... OptM3 with GC (2021)
Angular Grid (max. ang.)         AngularGrid ... 4 (Lebedev-302)
Angular grid pruning method      GridPruning ... 4 (adaptive)
Weight generation scheme         WeightScheme... Becke
Basis function cutoff            BFCut       ... 1.0000e-11
Integration weight cutoff        WCut        ... 1.0000e-14
Angular grids for H and He will be reduced by one unit
Partially contracted basis set               ... off
Rotationally invariant grid construction     ... off

Total number of grid points                  ...    47762
Total number of batches                      ...      749
Average number of points per batch           ...       63
Average number of grid points per atom       ...     6823
Time for grid setup =    0.220 sec

--------------------
COSX GRID GENERATION
--------------------

GRIDX 1
-------
General Integration Accuracy     IntAcc      ... 3.816
Radial Grid Type                 RadialGrid  ... OptM3 with GC (2021)
Angular Grid (max. ang.)         AngularGrid ... 1 (Lebedev-50)
Angular grid pruning method      GridPruning ... 4 (adaptive)
Weight generation scheme         WeightScheme... Becke
Basis function cutoff            BFCut       ... 1.0000e-11
Integration weight cutoff        WCut        ... 1.0000e-14
Angular grids for H and He will be reduced by one unit
Partially contracted basis set               ... on
Rotationally invariant grid construction     ... off

Total number of grid points                  ...     5819
Total number of batches                      ...       95
Average number of points per batch           ...       61
Average number of grid points per atom       ...      831
UseSFitting                                  ... on

GRIDX 2
-------
General Integration Accuracy     IntAcc      ... 4.020
Radial Grid Type                 RadialGrid  ... OptM3 with GC (2021)
Angular Grid (max. ang.)         AngularGrid ... 2 (Lebedev-110)
Angular grid pruning method      GridPruning ... 4 (adaptive)
Weight generation scheme         WeightScheme... Becke
Basis function cutoff            BFCut       ... 1.0000e-11
Integration weight cutoff        WCut        ... 1.0000e-14
Angular grids for H and He will be reduced by one unit
Partially contracted basis set               ... on
Rotationally invariant grid construction     ... off

Total number of grid points                  ...    13797
Total number of batches                      ...      220
Average number of points per batch           ...       62
[...]
  87   0.0000       1.344640        36.5895 
  88   0.0000       1.350752        36.7558 
  89   0.0000       1.358939        36.9786 
  90   0.0000       1.363571        37.1046 
  91   0.0000       1.458596        39.6904 
  92   0.0000       1.460732        39.7485 
  93   0.0000       1.516450        41.2647 
  94   0.0000       1.518840        41.3297 
  95   0.0000       1.522983        41.4425 
  96   0.0000       1.553203        42.2648 
  97   0.0000       1.564276        42.5661 
  98   0.0000       1.583058        43.0772 
  99   0.0000       1.584701        43.1219 
 100   0.0000       1.591000        43.2933 
 101   0.0000       1.595133        43.4058 
 102   0.0000       1.671089        45.4727 
 103   0.0000       1.675825        45.6015 
 104   0.0000       1.702879        46.3377 
 105   0.0000       1.708439        46.4890 
 106   0.0000       1.747626        47.5553 
 107   0.0000       1.747798        47.5600 
 108   0.0000       1.809857        49.2487 
 109   0.0000       1.810663        49.2706 
 110   0.0000       1.815641        49.4061 
 111   0.0000       1.818260        49.4774 
 112   0.0000       1.837842        50.0102 
 113   0.0000       1.879486        51.1434 
 114   0.0000       1.904199        51.8159 
 115   0.0000       1.984628        54.0045 
 116   0.0000       1.987642        54.0865 
 117   0.0000       2.003554        54.5195 
 118   0.0000       2.005977        54.5854 
 119   0.0000       2.056273        55.9540 
 120   0.0000       2.130989        57.9871 
 121   0.0000       2.134784        58.0904 
 122   0.0000       2.322177        63.1896 
 123   0.0000       2.324852        63.2624 
 124   0.0000       2.360836        64.2416 
 125   0.0000       2.576165        70.1010 
 126   0.0000       2.598487        70.7084 
 127   0.0000       2.601459        70.7893 
 128   0.0000       2.664869        72.5148 
 129   0.0000       2.681183        72.9587 
 130   0.0000       2.701141        73.5018 
 131   0.0000       2.706101        73.6367 
 132   0.0000       2.706711        73.6534 
 133   0.0000       2.789212        75.8983 
 134   0.0000       2.790444        75.9319 
 135   0.0000       3.010470        81.9190 
 136   0.0000       3.011060        81.9351 
 137   0.0000       3.011074        81.9355 
 138   0.0000       3.011372        81.9436 
 139   0.0000       3.011643        81.9510 
 140   0.0000       3.012025        81.9614 
 141   0.0000       3.090822        84.1055 
 142   0.0000       3.094519        84.2061 
 143   0.0000       3.097828        84.2962 
 144   0.0000       3.132029        85.2268 
 145   0.0000       3.133900        85.2778 
 146   0.0000       3.174734        86.3889 
 147   0.0000       3.178628        86.4949 
 148   0.0000       3.179295        86.5130 
 149   0.0000       3.307961        90.0142 
 150   0.0000       3.315179        90.2106 
 151   0.0000       3.315584        90.2216 
 152   0.0000       3.331063        90.6428 
 153   0.0000       3.350109        91.1611 
 154   0.0000       3.380231        91.9807 
 155   0.0000       3.384307        92.0917 
 156   0.0000       3.391545        92.2886 
 157   0.0000       3.408289        92.7443 
 158   0.0000       3.410091        92.7933 
 159   0.0000       3.411239        92.8245 
 160   0.0000       3.473974        94.5316 
 161   0.0000       3.475169        94.5642 
 162   0.0000       3.617375        98.4338 
 163   0.0000       3.618444        98.4629 
 164   0.0000       3.718247       101.1786 
 165   0.0000       3.719654       101.2169 
 166   0.0000       3.731118       101.5289 
 167   0.0000       3.748077       101.9904 
 168   0.0000       3.749128       102.0190 
 169   0.0000       3.772915       102.6662 
 170   0.0000       3.828550       104.1801 
 171   0.0000       3.828880       104.1891 
 172   0.0000       3.848146       104.7134 
 173   0.0000       3.955747       107.6413 
 174   0.0000       4.014733       109.2465 
 175   0.0000       4.118733       112.0764 
 176   0.0000       4.120673       112.1292 
 177   0.0000       4.123042       112.1937 
 178   0.0000       4.133632       112.4819 
 179   0.0000       4.302259       117.0704 
 180   0.0000       4.302285       117.0711 
 181   0.0000       4.302740       117.0835 
 182   0.0000       4.302791       117.0849 
 183   0.0000       4.303044       117.0918 
 184   0.0000       4.303113       117.0936 
 185   0.0000       4.526127       123.1622 
 186   0.0000       4.669017       127.0504 
 187   0.0000       4.678632       127.3121 
 188   0.0000       4.786933       130.2591 
 189   0.0000       4.800556       130.6298 
 190   0.0000       4.801797       130.6636 
 191   0.0000       4.808225       130.8384 
 192   0.0000       4.809751       130.8800 
 193   0.0000       4.813638       130.9857 
 194   0.0000       4.936532       134.3299 
 195   0.0000       4.939045       134.3982 
 196   0.0000       4.939861       134.4205 
 197   0.0000       4.939950       134.4229 
 198   0.0000       4.940308       134.4326 
 199   0.0000       4.941950       134.4773 
 200   0.0000       5.218927       142.0142 
 201   0.0000       5.223620       142.1419 
 202   0.0000       5.258228       143.0837 
 203   0.0000       5.259142       143.1085 
 204   0.0000       5.338858       145.2777 
 205   0.0000       5.342738       145.3833 
 206   0.0000       5.689270       154.8129 
 207   0.0000       5.725404       155.7962 
 208   0.0000       5.727765       155.8604 
 209   0.0000       5.770687       157.0284 
 210   0.0000       5.794190       157.6679 
 211   0.0000       5.795076       157.6920 
 212   0.0000       5.807019       158.0170 
 213   0.0000       5.809157       158.0752 
 214   0.0000       5.811973       158.1518 
 215   0.0000       6.088652       165.6806 
 216   0.0000       6.089894       165.7144 
 217   0.0000       6.101979       166.0433 
 218   0.0000       6.160731       167.6420 
 219   0.0000       6.163399       167.7146 
 220   0.0000       6.164635       167.7483 
 221   0.0000       6.191336       168.4748 
 222   0.0000       6.299740       171.4247 
 223   0.0000       6.301203       171.4644 
 224   0.0000       6.442393       175.3064 
 225   0.0000      22.755860       619.2184 
 226   0.0000      22.761127       619.3618 
 227   0.0000      22.778094       619.8235 
 228   0.0000      32.410362       881.9308 
 229   0.0000      32.413232       882.0089 
 230   0.0000      32.478932       883.7967 

                    ********************************
                    * MULLIKEN POPULATION ANALYSIS *
                    ********************************

-----------------------
MULLIKEN ATOMIC CHARGES
-----------------------
   0 Cu:   -0.082539
   1 C :   -0.508554
   2 N :   -0.134506
   3 C :   -0.497890
   4 N :   -0.136670
   5 C :   -0.504449
   6 N :   -0.135391
Sum of atomic charges:   -2.0000000

--------------------------------
MULLIKEN REDUCED ORBITAL CHARGES
--------------------------------
  0 Cus       :     6.902374  s :     6.902374
      pz      :     4.013882  p :    12.463273
      px      :     4.226323
      py      :     4.223067
      dz2     :     1.946549  d :     9.716764
      dxz     :     1.969114
      dyz     :     1.970145
      dx2y2   :     1.915453
      dxy     :     1.915504
      f0      :     0.000005  f :     0.000129
      f+1     :     0.000026
      f-1     :     0.000025
      f+2     :     0.000004
      f-2     :     0.000004
      f+3     :     0.000038
      f-3     :     0.000027
  1 C s       :     3.858882  s :     3.858882
      pz      :     0.808556  p :     2.580828
      px      :     0.825644
      py      :     0.946627
      dz2     :     0.004119  d :     0.058749
      dxz     :     0.002334
      dyz     :     0.018290
      dx2y2   :     0.015305
      dxy     :     0.018701
      f0      :     0.001352  f :     0.010096
      f+1     :     0.000283
      f-1     :     0.000879
      f+2     :     0.001529
      f-2     :     0.000893
      f+3     :     0.002215
      f-3     :     0.002944
  2 N s       :     3.397849  s :     3.397849
      pz      :     1.165393  p :     3.696441
      px      :     1.214559
      py      :     1.316488
      dz2     :     0.001591  d :     0.038027
      dxz     :     0.001657
      dyz     :     0.014490
      dx2y2   :     0.008711
      dxy     :     0.011578
      f0      :     0.000377  f :     0.002190
      f+1     :     0.000056
      f-1     :     0.000036
      f+2     :     0.000419
      f-2     :     0.000243
      f+3     :     0.000361
      f-3     :     0.000698
  3 C s       :     3.849334  s :     3.849334
      pz      :     0.808712  p :     2.579498
      px      :     0.956317
      py      :     0.814469
      dz2     :     0.004126  d :     0.058965
      dxz     :     0.019591
      dyz     :     0.001072
      dx2y2   :     0.012690
      dxy     :     0.021486
      f0      :     0.001353  f :     0.010093
      f+1     :     0.000925
      f-1     :     0.000238
      f+2     :     0.002038
      f-2     :     0.000383
      f+3     :     0.002213
      f-3     :     0.002944
  4 N s       :     3.400046  s :     3.400046
      pz      :     1.165345  p :     3.696382
      px      :     1.324079
      py      :     1.206959
      dz2     :     0.001595  d :     0.038053
      dxz     :     0.015528
      dyz     :     0.000620
      dx2y2   :     0.006309
      dxy     :     0.014000
      f0      :     0.000377  f :     0.002189
      f+1     :     0.000034
      f-1     :     0.000057
      f+2     :     0.000564
      f-2     :     0.000099
      f+3     :     0.000360
      f-3     :     0.000698
  5 C s       :     3.854545  s :     3.854545
      pz      :     0.808676  p :     2.580900
      px      :     0.883395
      py      :     0.888829
      dz2     :     0.004133  d :     0.058893
      dxz     :     0.009761
      dyz     :     0.010888
      dx2y2   :     0.023274
      dxy     :     0.010836
      f0      :     0.001355  f :     0.010111
      f+1     :     0.000558
      f-1     :     0.000606
      f+2     :     0.000034
      f-2     :     0.002393
      f+3     :     0.002430
      f-3     :     0.002735
  6 N s       :     3.398741  s :     3.398741
      pz      :     1.165347  p :     3.696435
      px      :     1.261416
      py      :     1.269672
      dz2     :     0.001593  d :     0.038028
      dxz     :     0.007646
      dyz     :     0.008495
      dx2y2   :     0.015571
      dxy     :     0.004724
      f0      :     0.000376  f :     0.002188
      f+1     :     0.000046
      f-1     :     0.000045
      f+2     :     0.000002
      f-2     :     0.000660
      f+3     :     0.000457
      f-3     :     0.000600


                     *******************************
                     * LOEWDIN POPULATION ANALYSIS *
                     *******************************

----------------------
LOEWDIN ATOMIC CHARGES
----------------------
   0 Cu:   -0.236139
   1 C :   -0.403994
   2 N :   -0.184169
   3 C :   -0.403611
   4 N :   -0.184032
   5 C :   -0.404003
   6 N :   -0.184052

-------------------------------
LOEWDIN REDUCED ORBITAL CHARGES
-------------------------------
  0 Cus       :     6.468651  s :     6.468651
      pz      :     4.021833  p :    12.719584
      px      :     4.349256
      py      :     4.348495
      dz2     :     1.989697  d :    10.047675
      dxz     :     1.990303
      dyz     :     1.990380
      dx2y2   :     2.038231
      dxy     :     2.039064
      f0      :     0.000009  f :     0.000230
      f+1     :     0.000051
      f-1     :     0.000050
      f+2     :     0.000008
      f-2     :     0.000008
      f+3     :     0.000061
      f-3     :     0.000043
  1 C s       :     3.158762  s :     3.158762
      pz      :     0.792483  p :     2.882279
      px      :     0.848106
      py      :     1.241690
      dz2     :     0.032537  d :     0.310394
      dxz     :     0.008710
      dyz     :     0.069927
      dx2y2   :     0.099340
      dxy     :     0.099880
      f0      :     0.006115  f :     0.052559
      f+1     :     0.001657
      f-1     :     0.006546
      f+2     :     0.006585
      f-2     :     0.003885
      f+3     :     0.013174
      f-3     :     0.014596
  2 N s       :     3.328730  s :     3.328730
      pz      :     1.086421  p :     3.752844
      px      :     1.162267
      py      :     1.504155
      dz2     :     0.011616  d :     0.089935
      dxz     :     0.002241
      dyz     :     0.019618
      dx2y2   :     0.030022
      dxy     :     0.026438
      f0      :     0.001157  f :     0.012660
      f+1     :     0.000415
      f-1     :     0.002189
      f+2     :     0.001237
      f-2     :     0.000719
      f+3     :     0.003688
      f-3     :     0.003253
  3 C s       :     3.158056  s :     3.158056
      pz      :     0.792500  p :     2.882529
      px      :     1.272947
      py      :     0.817082
      dz2     :     0.032470  d :     0.310500
      dxz     :     0.074787
      dyz     :     0.003920
      dx2y2   :     0.098915
      dxy     :     0.100408
      f0      :     0.006112  f :     0.052526
      f+1     :     0.006932
      f-1     :     0.001269
      f+2     :     0.008797
      f-2     :     0.001665
      f+3     :     0.013162
      f-3     :     0.014590
  4 N s       :     3.328749  s :     3.328749
      pz      :     1.086437  p :     3.752682
      px      :     1.531446
      py      :     1.134799
      dz2     :     0.011609  d :     0.089949
      dxz     :     0.021024
      dyz     :     0.000842
      dx2y2   :     0.032985
      dxy     :     0.023489
      f0      :     0.001157  f :     0.012652
      f+1     :     0.002329
      f-1     :     0.000273
      f+2     :     0.001666
      f-2     :     0.000291
      f+3     :     0.003686
      f-3     :     0.003251
  5 C s       :     3.158318  s :     3.158318
      pz      :     0.792496  p :     2.882508
      px      :     1.031859
      py      :     1.058154
      dz2     :     0.032528  d :     0.310610
      dxz     :     0.037115
      dyz     :     0.041600
      dx2y2   :     0.100764
      dxy     :     0.098604
      f0      :     0.006116  f :     0.052566
      f+1     :     0.003930
      f-1     :     0.004276
      f+2     :     0.000184
      f-2     :     0.010287
      f+3     :     0.013592
      f-3     :     0.014182
  6 N s       :     3.328681  s :     3.328681
      pz      :     1.086398  p :     3.752770
      px      :     1.321743
      py      :     1.344630
      dz2     :     0.011613  d :     0.089942
      dxz     :     0.010350
      dyz     :     0.011513
      dx2y2   :     0.021510
      dxy     :     0.034956
      f0      :     0.001157  f :     0.012659
      f+1     :     0.001242
      f-1     :     0.001362
      f+2     :     0.000006
      f-2     :     0.001951
      f+3     :     0.003564
      f-3     :     0.003377


                      *****************************
                      * MAYER POPULATION ANALYSIS *
                      *****************************

  NA   - Mulliken gross atomic population
  ZA   - Total nuclear charge
  QA   - Mulliken gross atomic charge
  VA   - Mayer's total valence
  BVA  - Mayer's bonded valence
  FA   - Mayer's free valence

  ATOM       NA         ZA         QA         VA         BVA        FA
  0 Cu    29.0825    29.0000    -0.0825     2.0648     2.0648    -0.0000
  1 C      6.5086     6.0000    -0.5086     3.5884     3.5884    -0.0000
  2 N      7.1345     7.0000    -0.1345     2.8302     2.8302    -0.0000
  3 C      6.4979     6.0000    -0.4979     3.6027     3.6027     0.0000
  4 N      7.1367     7.0000    -0.1367     2.8345     2.8345    -0.0000
  5 C      6.5044     6.0000    -0.5044     3.5954     3.5954    -0.0000
  6 N      7.1354     7.0000    -0.1354     2.8328     2.8328    -0.0000

  Mayer bond orders larger than 0.100000
B(  0-Cu,  1-C ) :   0.7155 B(  0-Cu,  3-C ) :   0.7235 B(  0-Cu,  5-C ) :   0.7194 
B(  1-C ,  2-N ) :   2.8576 B(  3-C ,  4-N ) :   2.8616 B(  5-C ,  6-N ) :   2.8599 


-------
TIMINGS
-------

Total SCF time: 0 days 0 hours 0 min 9 sec 

Total time                  ....       9.483 sec
Sum of individual times     ....       9.348 sec  ( 98.6%)

Fock matrix formation       ....       8.823 sec  ( 93.0%)
  Split-RI-J                ....       0.641 sec  (  7.3% of F)
  Chain of spheres X        ....       7.421 sec  ( 84.1% of F)
  XC integration            ....       0.742 sec  (  8.4% of F)
    Basis function eval.    ....       0.235 sec  ( 31.8% of XC)
    Density eval.           ....       0.209 sec  ( 28.1% of XC)
    XC-Functional eval.     ....       0.043 sec  (  5.9% of XC)
    XC-Potential eval.      ....       0.186 sec  ( 25.1% of XC)
Diagonalization             ....       0.064 sec  (  0.7%)
Density matrix formation    ....       0.003 sec  (  0.0%)
Population analysis         ....       0.013 sec  (  0.1%)
Initial guess               ....       0.009 sec  (  0.1%)
Orbital Transformation      ....       0.000 sec  (  0.0%)
Orbital Orthonormalization  ....       0.006 sec  (  0.1%)
DIIS solution               ....       0.035 sec  (  0.4%)
Grid generation             ....       0.401 sec  (  4.2%)

Maximum memory used throughout the entire SCF-calculation: 69.8 MB

-------------------------   --------------------
FINAL SINGLE POINT ENERGY     -1918.652893836371
-------------------------   --------------------

                                *** OPTIMIZATION RUN DONE ***

                            ***************************************
                            *     ORCA property calculations      *
                            ***************************************

                                    ---------------------
                                    Active property flags
                                    ---------------------
   (+) Dipole Moment


------------------------------------------------------------------------------
                       ORCA ELECTRIC PROPERTIES CALCULATION
------------------------------------------------------------------------------

Dipole Moment Calculation                       ... on
Quadrupole Moment Calculation                   ... off
Polarizability Calculation                      ... off
GBWName                                         ... cucn3.gbw
Electron density                                ... cucn3.scfp
The origin for moment calculation is the CENTER OF MASS  = (-0.073174, -0.077370 -0.002563)

-------------
DIPOLE MOMENT
-------------
                                X             Y             Z
Electronic contribution:      0.08169       0.06656      -0.00785
Nuclear contribution   :     -0.04905      -0.03963       0.00421
                        -----------------------------------------
Total Dipole Moment    :      0.03264       0.02693      -0.00364
                        -----------------------------------------
Magnitude (a.u.)       :      0.04247
Magnitude (Debye)      :      0.10795



--------------------
Rotational spectrum 
--------------------
 
Rotational constants in cm-1:     0.061039     0.058967     0.029992 
Rotational constants in MHz :  1829.891452  1767.786260   899.151871 

 Dipole components along the rotational axes: 
x,y,z [a.u.] :     0.032401     0.027217    -0.003635 
x,y,z [Debye]:     0.082357     0.069180    -0.009238 

 

Timings for individual modules:

Sum of individual times         ...      637.997 sec (=  10.633 min)
GTO integral calculation        ...       20.039 sec (=   0.334 min)   3.1 %
SCF iterations                  ...      485.625 sec (=   8.094 min)  76.1 %
SCF Gradient evaluation         ...      132.038 sec (=   2.201 min)  20.7 %
Geometry relaxation             ...        0.296 sec (=   0.005 min)   0.0 %
                             ****ORCA TERMINATED NORMALLY****
TOTAL RUN TIME: 0 days 0 hours 10 minutes 52 seconds 191 msec
