
                                 *****************
                                 * O   R   C   A *
                                 *****************

                                            #,                                       
                                            ###                                      
                                            ####                                     
                                            #####                                    
                                            ######                                   
                                           ########,                                 
                                     ,,################,,,,,                         
                               ,,#################################,,                 
                          ,,##########################################,,             
                       ,#########################################, ''#####,          
                    ,#############################################,,   '####,        
                  ,##################################################,,,,####,       
                ,###########''''           ''''###############################       
              ,#####''   ,,,,##########,,,,          '''####'''          '####       
            ,##' ,,,,###########################,,,                        '##       
           ' ,,###''''                  '''############,,,                           
         ,,##''                                '''############,,,,        ,,,,,,###''
      ,#''                                            '''#######################'''  
     '                                                          ''''####''''         
             ,#######,   #######,   ,#######,      ##                                
            ,#'     '#,  ##    ##  ,#'     '#,    #''#        ######   ,####,        
            ##       ##  ##   ,#'  ##            #'  '#       #        #'  '#        
            ##       ##  #######   ##           ,######,      #####,   #    #        
            '#,     ,#'  ##    ##  '#,     ,#' ,#      #,         ##   #,  ,#        
             '#######'   ##     ##  '#######'  #'      '#     #####' # '####'        



                  #######################################################
                  #                        -***-                        #
                  #          Department of theory and spectroscopy      #
                  #    Directorship and core code : Frank Neese         #
                  #        Max Planck Institute fuer Kohlenforschung    #
                  #                Kaiser Wilhelm Platz 1               #
                  #                 D-45470 Muelheim/Ruhr               #
                  #                      Germany                        #
                  #                                                     #
                  #                  All rights reserved                #
                  #                        -***-                        #
                  #######################################################


                         Program Version 5.0.4 -  RELEASE  -


 With contributions from (in alphabetic order):
   Daniel Aravena         : Magnetic Suceptibility
   Michael Atanasov       : Ab Initio Ligand Field Theory (pilot matlab implementation)
   Alexander A. Auer      : GIAO ZORA, VPT2 properties, NMR spectrum
   Ute Becker             : Parallelization
   Giovanni Bistoni       : ED, misc. LED, open-shell LED, HFLD
   Martin Brehm           : Molecular dynamics
   Dmytro Bykov           : SCF Hessian
   Vijay G. Chilkuri      : MRCI spin determinant printing, contributions to CSF-ICE
   Dipayan Datta          : RHF DLPNO-CCSD density
   Achintya Kumar Dutta   : EOM-CC, STEOM-CC
   Dmitry Ganyushin       : Spin-Orbit,Spin-Spin,Magnetic field MRCI
   Miquel Garcia          : C-PCM and meta-GGA Hessian, CC/C-PCM, Gaussian charge scheme
   Yang Guo               : DLPNO-NEVPT2, F12-NEVPT2, CIM, IAO-localization
   Andreas Hansen         : Spin unrestricted coupled pair/coupled cluster methods
   Benjamin Helmich-Paris : MC-RPA, TRAH-SCF, COSX integrals
   Lee Huntington         : MR-EOM, pCC
   Robert Izsak           : Overlap fitted RIJCOSX, COSX-SCS-MP3, EOM
   Marcus Kettner         : VPT2
   Christian Kollmar      : KDIIS, OOCD, Brueckner-CCSD(T), CCSD density, CASPT2, CASPT2-K
   Simone Kossmann        : Meta GGA functionals, TD-DFT gradient, OOMP2, MP2 Hessian
   Martin Krupicka        : Initial AUTO-CI
   Lucas Lang             : DCDCAS
   Marvin Lechner         : AUTO-CI (C++ implementation), FIC-MRCC
   Dagmar Lenk            : GEPOL surface, SMD
   Dimitrios Liakos       : Extrapolation schemes; Compound Job, initial MDCI parallelization
   Dimitrios Manganas     : Further ROCIS development; embedding schemes
   Dimitrios Pantazis     : SARC Basis sets
   Anastasios Papadopoulos: AUTO-CI, single reference methods and gradients
   Taras Petrenko         : DFT Hessian,TD-DFT gradient, ASA, ECA, R-Raman, ABS, FL, XAS/XES, NRVS
   Peter Pinski           : DLPNO-MP2, DLPNO-MP2 Gradient
   Christoph Reimann      : Effective Core Potentials
   Marius Retegan         : Local ZFS, SOC
   Christoph Riplinger    : Optimizer, TS searches, QM/MM, DLPNO-CCSD(T), (RO)-DLPNO pert. Triples
   Tobias Risthaus        : Range-separated hybrids, TD-DFT gradient, RPA, STAB
   Michael Roemelt        : Original ROCIS implementation
   Masaaki Saitow         : Open-shell DLPNO-CCSD energy and density
   Barbara Sandhoefer     : DKH picture change effects
   Avijit Sen             : IP-ROCIS
   Kantharuban Sivalingam : CASSCF convergence, NEVPT2, FIC-MRCI
   Bernardo de Souza      : ESD, SOC TD-DFT
   Georgi Stoychev        : AutoAux, RI-MP2 NMR, DLPNO-MP2 response
   Willem Van den Heuvel  : Paramagnetic NMR
   Boris Wezisla          : Elementary symmetry handling
   Frank Wennmohs         : Technical directorship


 We gratefully acknowledge several colleagues who have allowed us to
 interface, adapt or use parts of their codes:
   Stefan Grimme, W. Hujo, H. Kruse, P. Pracht,  : VdW corrections, initial TS optimization,
                  C. Bannwarth, S. Ehlert          DFT functionals, gCP, sTDA/sTD-DF
   Ed Valeev, F. Pavosevic, A. Kumar             : LibInt (2-el integral package), F12 methods
   Garnet Chan, S. Sharma, J. Yang, R. Olivares  : DMRG
   Ulf Ekstrom                                   : XCFun DFT Library
   Mihaly Kallay                                 : mrcc  (arbitrary order and MRCC methods)
   Jiri Pittner, Ondrej Demel                    : Mk-CCSD
   Frank Weinhold                                : gennbo (NPA and NBO analysis)
   Christopher J. Cramer and Donald G. Truhlar   : smd solvation model
   Lars Goerigk                                  : TD-DFT with DH, B97 family of functionals
   V. Asgeirsson, H. Jonsson                     : NEB implementation
   FAccTs GmbH                                   : IRC, NEB, NEB-TS, DLPNO-Multilevel, CI-OPT
                                                   MM, QMMM, 2- and 3-layer-ONIOM, Crystal-QMMM,
                                                   LR-CPCM, SF, NACMEs, symmetry and pop. for TD-DFT,
                                                   nearIR, NL-DFT gradient (VV10), updates on ESD,
                                                   ML-optimized integration grids
   S Lehtola, MJT Oliveira, MAL Marques          : LibXC Library
   Liviu Ungur et al                             : ANISO software


 Your calculation uses the libint2 library for the computation of 2-el integrals
 For citations please refer to: http://libint.valeyev.net

 Your ORCA version has been built with support for libXC version: 5.1.0
 For citations please refer to: https://tddft.org/programs/libxc/

 This ORCA versions uses:
   CBLAS   interface :  Fast vector & matrix operations
   LAPACKE interface :  Fast linear algebra routines
   SCALAPACK package :  Parallel linear algebra routines
   Shared memory     :  Shared parallel matrices
   BLAS/LAPACK       :  OpenBLAS 0.3.15  USE64BITINT DYNAMIC_ARCH NO_AFFINITY Haswell SINGLE_THREADED
        Core in use  :  Haswell
   Copyright (c) 2011-2014, The OpenBLAS Project


================================================================================

cite the ECPs for Au [Def2-ECP] as follows:
Ce-Yb(ecp-28): M. Dolg, H. Stoll, H.Preuss, J. Chem. Phys., 1989, 90, 1730-1734.
Y-Cd(ecp-28), Hf-Hg(ecp-46): D. Andrae,U. Haeussermann, M. Dolg, H. Stoll, H. Preuss, Theor. Chim. Acta, 1990, 77, 123-141.
In-Sb(ecp-28), Tl-Bi(ecp-46): B. Metz, H. Stoll, M. Dolg, J. Chem. Phys., 2000, 113, 2563-2569.
Te-Xe(ecp-28), Po-Rn(ecp-46): K. A. Peterson, D. Figgen, E. Goll, H. Stoll, M. Dolg, J. Chem. Phys., 2003, 119, 11113-11123.
Rb(ecp-28), Cs(ecp-46): T. Leininger, A. Nicklass, W. Kuechle, H. Stoll, M. Dolg, A. Bergner, Chem. Phys. Lett., 1996, 255, 274-280.
Sr(ecp-28), Ba(ecp-46): M. Kaupp, P. V. Schleyer, H. Stoll and H. Preuss, J. Chem. Phys., 1991, 94, 1360-1366.
La(ecp-46): M. Dolg, H. Stoll, A. Savin, H. Preuss, Theor. Chim. Acta, 1989, 75, 173-194.
Lu(ecp-28): X. Cao, M. Dolg, J. Chem. Phys., 2001, 115, 7348-7355.

ECP parameters for Au [Def2-ECP] have been obtained from:
TURBOMOLE (7.0.2)

----- Orbital basis set information -----
Your calculation utilizes the basis: def2-TZVP
   F. Weigend and R. Ahlrichs, Phys. Chem. Chem. Phys. 7, 3297 (2005).

----- AuxJ basis set information -----
Your calculation utilizes the auxiliary basis: def2/J
   F. Weigend, Phys. Chem. Chem. Phys. 8, 1057 (2006).

================================================================================
                                        WARNINGS
                       Please study these warnings very carefully!
================================================================================


WARNING: Geometry Optimization
  ===> : Switching off AutoStart
         For restart on a previous wavefunction, please use MOREAD

INFO   : the flag for use of the SHARK integral package has been found!

================================================================================
                                       INPUT FILE
================================================================================
NAME = AuBr4.inp
|  1> # avogadro generated ORCA file
|  2> # Geometry Optimization | B3LYP/def2-TZVP
|  3> # Au +3
|  4> # 
|  5> ! Opt B3LYP def2-TZVP FREQ
|  6> %maxcore 4096
|  7> 
|  8> %pal
|  9>    nprocs 4
| 10> end
| 11> 
| 12> * xyz -1 1
| 13>    Au     0.000000   -0.000000   -0.000000
| 14>    Br    -1.767900    1.767700    0.000000
| 15>    Br     1.767900   -1.767700    0.000000
| 16>    Br     1.767700    1.767900   -0.000000
| 17>    Br    -1.767700   -1.767900   -0.000000
| 18> *
| 19> 
| 20> 
| 21> 
| 22>                          ****END OF INPUT****
================================================================================

                       *****************************
                       * Geometry Optimization Run *
                       *****************************

Geometry optimization settings:
Update method            Update   .... BFGS
Choice of coordinates    CoordSys .... Z-matrix Internals
Initial Hessian          InHess   .... Almoef's Model

Convergence Tolerances:
Energy Change            TolE     ....  5.0000e-06 Eh
Max. Gradient            TolMAXG  ....  3.0000e-04 Eh/bohr
RMS Gradient             TolRMSG  ....  1.0000e-04 Eh/bohr
Max. Displacement        TolMAXD  ....  4.0000e-03 bohr
RMS Displacement         TolRMSD  ....  2.0000e-03 bohr
Strict Convergence                ....  False
------------------------------------------------------------------------------
                        ORCA OPTIMIZATION COORDINATE SETUP
------------------------------------------------------------------------------

The optimization will be done in new redundant internal coordinates
Making redundant internal coordinates   ...  (new redundants) done
Evaluating the initial hessian          ...  (Almloef) done
Evaluating the coordinates              ...  done
Calculating the B-matrix                .... done
Calculating the G-matrix                .... done
Diagonalizing the G-matrix              .... done
The first mode is                       ....    1
The number of degrees of freedom        ....    7

    -----------------------------------------------------------------
                    Redundant Internal Coordinates


    -----------------------------------------------------------------
         Definition                    Initial Value    Approx d2E/dq
    -----------------------------------------------------------------
      1. B(Br  1,Au  0)                  2.5000         0.049524   
      2. B(Br  2,Au  0)                  2.5000         0.049524   
      3. B(Br  3,Au  0)                  2.5000         0.049524   
      4. B(Br  4,Au  0)                  2.5000         0.049524   
      5. A(Br  2,Au  0,Br  3)           90.0000         0.223596   
      6. A(Br  1,Au  0,Br  4)           90.0000         0.223596   
      7. A(Br  2,Au  0,Br  4)           90.0000         0.223596   
      8. A(Br  1,Au  0,Br  3)           90.0000         0.223596   
    -----------------------------------------------------------------

Number of atoms                         .... 5
Number of degrees of freedom            .... 8

         *************************************************************
         *                GEOMETRY OPTIMIZATION CYCLE   1            *
         *************************************************************
---------------------------------
CARTESIAN COORDINATES (ANGSTROEM)
---------------------------------
  Au     0.000000   -0.000000   -0.000000
  Br    -1.767900    1.767700    0.000000
  Br     1.767900   -1.767700    0.000000
  Br     1.767700    1.767900   -0.000000
  Br    -1.767700   -1.767900   -0.000000

----------------------------
CARTESIAN COORDINATES (A.U.)
----------------------------
  NO LB      ZA    FRAG     MASS         X           Y           Z
   0 Au   19.0000*   0   196.966    0.000000   -0.000000   -0.000000
   1 Br   35.0000    0    79.900   -3.340847    3.340469    0.000000
   2 Br   35.0000    0    79.900    3.340847   -3.340469    0.000000
   3 Br   35.0000    0    79.900    3.340469    3.340847   -0.000000
   4 Br   35.0000    0    79.900   -3.340469   -3.340847   -0.000000
* core charge reduced due to ECP

--------------------------------
INTERNAL COORDINATES (ANGSTROEM)
--------------------------------
 Au     0   0   0     0.000000000000     0.00000000     0.00000000
 Br     1   0   0     2.500046739563     0.00000000     0.00000000
 Br     1   2   0     2.500046739563   180.00000000     0.00000000
 Br     1   2   3     2.500046739563    90.00000000     0.00000000
 Br     1   2   4     2.500046739563    90.00000000   180.00000000

---------------------------
INTERNAL COORDINATES (A.U.)
---------------------------
 Au     0   0   0     0.000000000000     0.00000000     0.00000000
 Br     1   0   0     4.724403659777     0.00000000     0.00000000
 Br     1   2   0     4.724403659777   180.00000000     0.00000000
 Br     1   2   3     4.724403659777    90.00000000     0.00000000
 Br     1   2   4     4.724403659777    90.00000000   180.00000000

---------------------
BASIS SET INFORMATION
---------------------
There are 2 groups of distinct atoms

 Group   1 Type Au  : 8s7p6d1f contracted to 6s4p3d1f pattern {311111/4111/411/1}
 Group   2 Type Br  : 17s13p8d1f contracted to 6s5p4d1f pattern {842111/64111/5111/1}

Atom   0Au   basis set group =>   1
Atom   1Br   basis set group =>   2
Atom   2Br   basis set group =>   2
Atom   3Br   basis set group =>   2
Atom   4Br   basis set group =>   2
---------------------------------
AUXILIARY/J BASIS SET INFORMATION
---------------------------------
There are 2 groups of distinct atoms

 Group   1 Type Au  : 11s5p5d3f3g contracted to 8s5p5d2f3g pattern {41111111/11111/11111/21/111}
 Group   2 Type Br  : 19s5p5d3f1g contracted to 8s4p3d2f1g pattern {121111111/2111/311/21/1}

Atom   0Au   basis set group =>   1
Atom   1Br   basis set group =>   2
Atom   2Br   basis set group =>   2
Atom   3Br   basis set group =>   2
Atom   4Br   basis set group =>   2
-------------------------
ECP PARAMETER INFORMATION
-------------------------

 Group 1, Type Au ECP Def2-ECP (replacing 60 core electrons, lmax=3)

Atom   0Au   ECP group =>   1



           ************************************************************
           *        Program running with 4 parallel MPI-processes     *
           *              working on a common directory               *
           ************************************************************
------------------------------------------------------------------------------
                           ORCA GTO INTEGRAL CALCULATION
                           -- RI-GTO INTEGRALS CHOSEN --
------------------------------------------------------------------------------
------------------------------------------------------------------------------
                   ___                                                        
                  /   \      - P O W E R E D   B Y -                         
                 /     \                                                     
                 |  |  |   _    _      __       _____    __    __             
                 |  |  |  | |  | |    /  \     |  _  \  |  |  /  |          
                  \  \/   | |  | |   /    \    | | | |  |  | /  /          
                 / \  \   | |__| |  /  /\  \   | |_| |  |  |/  /          
                |  |  |   |  __  | /  /__\  \  |    /   |      \           
                |  |  |   | |  | | |   __   |  |    \   |  |\   \          
                \     /   | |  | | |  |  |  |  | |\  \  |  | \   \       
                 \___/    |_|  |_| |__|  |__|  |_| \__\ |__|  \__/        
                                                                              
                      - O R C A' S   B I G   F R I E N D -                    
                                      &                                       
                       - I N T E G R A L  F E E D E R -                       
                                                                              
 v1 FN, 2020, v2 2021                                                         
------------------------------------------------------------------------------


Reading SHARK input file AuBr4.SHARKINP.tmp ... ok
----------------------
SHARK INTEGRAL PACKAGE
----------------------

Number of atoms                             ...      5
Number of basis functions                   ...    232
Number of shells                            ...     78
Maximum angular momentum                    ...      3
Integral batch strategy                     ... SHARK/LIBINT Hybrid
RI-J (if used) integral strategy            ... SPLIT-RIJ (Revised 2003 algorithm where possible)
Printlevel                                  ...      1
Contraction scheme used                     ... SEGMENTED contraction
Coulomb Range Separation                    ... NOT USED
Exchange Range Separation                   ... NOT USED
Finite Nucleus Model                        ... NOT USED
Auxiliary Coulomb fitting basis             ... AVAILABLE
   # of basis functions in Aux-J            ...    321
   # of shells in Aux-J                     ...     95
   Maximum angular momentum in Aux-J        ...      4
Auxiliary J/K fitting basis                 ... NOT available
Auxiliary Correlation fitting basis         ... NOT available
Auxiliary 'external' fitting basis          ... NOT available
Integral threshold                          ...     2.500000e-11
Primitive cut-off                           ...     2.500000e-12
Primitive pair pre-selection threshold      ...     2.500000e-12

Calculating pre-screening integrals         ... done (  0.1 sec) Dimension = 78
Organizing shell pair data                  ... done (  0.0 sec)
Shell pair information
Total number of shell pairs                 ...      3081
Shell pairs after pre-screening             ...      2497
Total number of primitive shell pairs       ...     16210
Primitive shell pairs kept                  ...      8494
          la=0 lb=0:    313 shell pairs
          la=1 lb=0:    556 shell pairs
          la=1 lb=1:    256 shell pairs
          la=2 lb=0:    454 shell pairs
          la=2 lb=1:    400 shell pairs
          la=2 lb=2:    166 shell pairs
          la=3 lb=0:    134 shell pairs
          la=3 lb=1:    112 shell pairs
          la=3 lb=2:     91 shell pairs
          la=3 lb=3:     15 shell pairs

Calculating one electron integrals          ... done (  0.0 sec)
Calculating ECP integrals                   ... done (  0.2 sec)
Calculating RI/J V-Matrix + Cholesky decomp.... done (  0.0 sec)
Calculating Nuclear repulsion               ... done (  0.0 sec) ENN=   1555.714489511052 Eh

SHARK setup successfully completed in   0.4 seconds

Maximum memory used throughout the entire GTOINT-calculation: 20.4 MB


           ************************************************************
           *        Program running with 4 parallel MPI-processes     *
           *              working on a common directory               *
           ************************************************************
-------------------------------------------------------------------------------
                                 ORCA SCF
-------------------------------------------------------------------------------

------------
SCF SETTINGS
------------
Hamiltonian:
 Density Functional     Method          .... DFT(GTOs)
 Exchange Functional    Exchange        .... B88
   X-Alpha parameter    XAlpha          ....  0.666667
   Becke's b parameter  XBeta           ....  0.004200
 Correlation Functional Correlation     .... LYP
 LDA part of GGA corr.  LDAOpt          .... VWN-5
 Gradients option       PostSCFGGA      .... off
 Hybrid DFT is turned on
   Fraction HF Exchange ScalHFX         ....  0.200000
   Scaling of DF-GGA-X  ScalDFX         ....  0.720000
   Scaling of DF-GGA-C  ScalDFC         ....  0.810000
   Scaling of DF-LDA-C  ScalLDAC        ....  1.000000
   Perturbative correction              ....  0.000000
   Density functional embedding theory  .... OFF
   NL short-range parameter             ....  4.800000
 RI-approximation to the Coulomb term is turned on
   Number of AuxJ basis functions       .... 321
   RIJ-COSX (HFX calculated with COS-X)).... on


General Settings:
 Integral files         IntName         .... AuBr4
 Hartree-Fock type      HFTyp           .... RHF
 Total Charge           Charge          ....   -1
 Multiplicity           Mult            ....    1
 Number of Electrons    NEL             ....  160
 Basis Dimension        Dim             ....  232
 Nuclear Repulsion      ENuc            ....   1555.7144895111 Eh

Convergence Acceleration:
 DIIS                   CNVDIIS         .... on
   Start iteration      DIISMaxIt       ....    12
   Startup error        DIISStart       ....  0.200000
   # of expansion vecs  DIISMaxEq       ....     5
   Bias factor          DIISBfac        ....   1.050
   Max. coefficient     DIISMaxC        ....  10.000
 Trust-Rad. Augm. Hess. CNVTRAH         .... auto
   Auto Start mean grad. ratio tolernc. ....  1.125000
   Auto Start start iteration           ....    20
   Auto Start num. interpolation iter.  ....    10
   Max. Number of Micro iterations      ....    16
   Max. Number of Macro iterations      .... Maxiter - #DIIS iter
   Number of Davidson start vectors     ....     2
   Converg. threshold I  (grad. norm)   ....   1.000e-05
   Converg. threshold II (energy diff.) ....   1.000e-08
   Grad. Scal. Fac. for Micro threshold ....   0.100
   Minimum threshold for Micro iter.    ....   0.010
   NR start threshold (gradient norm)   ....   0.001
   Initial trust radius                 ....   0.400
   Minimum AH scaling param. (alpha)    ....   1.000
   Maximum AH scaling param. (alpha)    .... 1000.000
   Orbital update algorithm             .... Taylor
   White noise on init. David. guess    .... on
   Maximum white noise                  ....   0.010
   Quad. conv. algorithm                .... NR
 SOSCF                  CNVSOSCF        .... off
 Level Shifting         CNVShift        .... on
   Level shift para.    LevelShift      ....    0.2500
   Turn off err/grad.   ShiftErr        ....    0.0010
 Zerner damping         CNVZerner       .... off
 Static damping         CNVDamp         .... on
   Fraction old density DampFac         ....    0.7000
   Max. Damping (<1)    DampMax         ....    0.9800
   Min. Damping (>=0)   DampMin         ....    0.0000
   Turn off err/grad.   DampErr         ....    0.1000
 Fernandez-Rico         CNVRico         .... off

SCF Procedure:
 Maximum # iterations   MaxIter         ....   125
 SCF integral mode      SCFMode         .... Direct
   Integral package                     .... SHARK and LIBINT hybrid scheme
 Reset frequency        DirectResetFreq ....    20
 Integral Threshold     Thresh          ....  2.500e-11 Eh
 Primitive CutOff       TCut            ....  2.500e-12 Eh

Convergence Tolerance:
 Convergence Check Mode ConvCheckMode   .... Total+1el-Energy
 Convergence forced     ConvForced      .... 0
 Energy Change          TolE            ....  1.000e-08 Eh
 1-El. energy change                    ....  1.000e-05 Eh
 DIIS Error             TolErr          ....  5.000e-07


Diagonalization of the overlap matrix:
Smallest eigenvalue                        ... 5.663e-03
Time for diagonalization                   ...    0.004 sec
Threshold for overlap eigenvalues          ... 1.000e-08
Number of eigenvalues below threshold      ... 0
Time for construction of square roots      ...    0.002 sec
Total time needed                          ...    0.007 sec

Time for model grid setup =    0.108 sec

------------------------------
INITIAL GUESS: MODEL POTENTIAL
------------------------------
Loading Hartree-Fock densities                     ... done
  calling /home/io/Chem/orca/orca AuBr4_atom79.inp > AuBr4_atom79.out in order to generate an atomic fitting density for atom 0 (Au with ECP) on-the-fly... 
    atom 0 (Au), assumed electronic state with S=2: 1s2 2s2 2p6 3s2 3p6 4s2 3d10 4p6 5s2 4d10 5p6 6s1 4f14 5d10           ... done
Calculating cut-offs                               ... done
Initializing the effective Hamiltonian             ... done
Setting up the integral package (SHARK)            ... done
Starting the Coulomb interaction                   ... done (   0.0 sec)
Reading the grid                                   ... done
Mapping shells                                     ... done
Starting the XC term evaluation                    ... done (   0.0 sec)
  promolecular density results
     # of electrons  =    219.001545957
     EX              =   -726.156246764
     EC              =    -11.131224534
     EX+EC           =   -737.287471298
Transforming the Hamiltonian                       ... done (   0.0 sec)
Diagonalizing the Hamiltonian                      ... done (   0.0 sec)
Back transforming the eigenvectors                 ... done (   0.0 sec)
Now organizing SCF variables                       ... done
                      ------------------
                      INITIAL GUESS DONE (   0.7 sec)
                      ------------------
-------------------
DFT GRID GENERATION
-------------------

General Integration Accuracy     IntAcc      ... 4.388
Radial Grid Type                 RadialGrid  ... OptM3 with GC (2021)
Angular Grid (max. ang.)         AngularGrid ... 4 (Lebedev-302)
Angular grid pruning method      GridPruning ... 4 (adaptive)
Weight generation scheme         WeightScheme... Becke
Basis function cutoff            BFCut       ... 1.0000e-11
Integration weight cutoff        WCut        ... 1.0000e-14
Angular grids for H and He will be reduced by one unit
Partially contracted basis set               ... off
Rotationally invariant grid construction     ... off

Total number of grid points                  ...    56894
Total number of batches                      ...      890
Average number of points per batch           ...       63
Average number of grid points per atom       ...    11379
Time for grid setup =    0.404 sec

--------------------
COSX GRID GENERATION
--------------------

GRIDX 1
-------
General Integration Accuracy     IntAcc      ... 3.816
Radial Grid Type                 RadialGrid  ... OptM3 with GC (2021)
Angular Grid (max. ang.)         AngularGrid ... 1 (Lebedev-50)
Angular grid pruning method      GridPruning ... 4 (adaptive)
Weight generation scheme         WeightScheme... Becke
Basis function cutoff            BFCut       ... 1.0000e-11
Integration weight cutoff        WCut        ... 1.0000e-14
Angular grids for H and He will be reduced by one unit
Partially contracted basis set               ... on
Rotationally invariant grid construction     ... off

Total number of grid points                  ...     6122
Total number of batches                      ...       98
Average number of points per batch           ...       62
Average number of grid points per atom       ...     1224
UseSFitting                                  ... on

GRIDX 2
-------
General Integration Accuracy     IntAcc      ... 4.020
Radial Grid Type                 RadialGrid  ... OptM3 with GC (2021)
Angular Grid (max. ang.)         AngularGrid ... 2 (Lebedev-110)
Angular grid pruning method      GridPruning ... 4 (adaptive)
Weight generation scheme         WeightScheme... Becke
Basis function cutoff            BFCut       ... 1.0000e-11
Integration weight cutoff        WCut        ... 1.0000e-14
Angular grids for H and He will be reduced by one unit
Partially contracted basis set               ... on
Rotationally invariant grid construction     ... off

Total number of grid points                  ...    14676
Total number of batches                      ...      231
Average number of points per batch           ...       63
Average number of grid points per atom       ...     2935
UseSFitting                                  ... on

GRIDX 3
-------
General Integration Accuracy     IntAcc      ... 4.338
Radial Grid Type                 RadialGrid  ... OptM3 with GC (2021)
Angular Grid (max. ang.)         AngularGrid ... 3 (Lebedev-194)
Angular grid pruning method      GridPruning ... 4 (adaptive)
Weight generation scheme         WeightScheme... Becke
Basis function cutoff            BFCut       ... 1.0000e-11
Integration weight cutoff        WCut        ... 1.0000e-14
Angular grids for H and He will be reduced by one unit
Partially contracted basis set               ... on
Rotationally invariant grid construction     ... off

Total number of grid points                  ...    32212
Total number of batches                      ...      505
Average number of points per batch           ...       63
Average number of grid points per atom       ...     6442
UseSFitting                                  ... on

Time for X-Grid setup             =    0.228 sec

--------------
SCF ITERATIONS
--------------
ITER       Energy         Delta-E        Max-DP      RMS-DP      [F,P]     Damp
               ***  Starting incremental Fock matrix formation  ***
  0 -10431.9585531502   0.000000000000 0.14247922  0.00160774  0.5359919 0.7000
  1 -10432.0321413977  -0.073588247500 0.12102636  0.00117839  0.3843916 0.7000
  2 -10432.0610838258  -0.028942428082 0.10922523  0.00075423  0.2720904 0.7000
                               ***Turning on DIIS***
  3 -10432.0797313434  -0.018647517612 0.08434681  0.00052912  0.1895703 0.7000
  4 -10432.0935529190  -0.013821575603 0.05481661  0.00033249  0.1308029 0.7000
  5 -10432.1030783710  -0.009525451962 0.13009314  0.00078670  0.0914684 0.0000
  6 -10432.1251162968  -0.022037925834 0.00501191  0.00004946  0.0012479 0.0000
  7 -10432.1251226655  -0.000006368726 0.00077549  0.00001183  0.0012123 0.0000
  8 -10432.1251278167  -0.000005151222 0.00097943  0.00001035  0.0001577 0.0000
               *** Restarting incremental Fock matrix formation ***
                                   *** Resetting DIIS ***
  9 -10432.1251162540   0.000011562684 0.00030611  0.00000576  0.0000889 0.0000
 10 -10432.1251162268   0.000000027225 0.00017491  0.00000245  0.0001335 0.0000
 11 -10432.1251163161  -0.000000089311 0.00008096  0.00000086  0.0000510 0.0000
 12 -10432.1251162984   0.000000017730 0.00003199  0.00000028  0.0000191 0.0000
 13 -10432.1251162942   0.000000004242 0.00000324  0.00000006  0.0000016 0.0000
                            ***DIIS convergence achieved***

               *****************************************************
               *                     SUCCESS                       *
               *           SCF CONVERGED AFTER  14 CYCLES          *
               *****************************************************

Old exchange energy                            =    -74.060332249 Eh
New exchange energy                            =    -74.059435265 Eh
Exchange energy change after final integration =      0.000896984 Eh
Total energy after final integration           = -10432.124219308 Eh
Final COS-X integration done in                =     2.279 sec

----------------
TOTAL SCF ENERGY
----------------

Total Energy       :       -10432.12421931 Eh         -283872.53181 eV

Components:
Nuclear Repulsion  :         1555.71448951 Eh           42333.14344 eV
Electronic Energy  :       -11987.83870882 Eh         -326205.67524 eV
One Electron Energy:       -17701.49633083 Eh         -481682.20341 eV
Two Electron Energy:         5713.65762201 Eh          155476.52817 eV
Max COSX asymmetry :            0.00004809 Eh               0.00131 eV

Virial components:
Potential Energy   :       -20759.62549325 Eh         -564898.12854 eV
Kinetic Energy     :        10327.50127394 Eh          281025.59673 eV
Virial Ratio       :            2.01013052


DFT components:
N(Alpha)           :       80.000049866780 electrons
N(Beta)            :       80.000049866780 electrons
N(Total)           :      160.000099733560 electrons
E(X)               :     -295.013130105192 Eh       
E(C)               :       -8.770394495399 Eh       
E(XC)              :     -303.783524600590 Eh       
DFET-embed. en.    :        0.000000000000 Eh       

---------------
SCF CONVERGENCE
---------------

  Last Energy change         ...    2.3265e-09  Tolerance :   1.0000e-08
  Last MAX-Density change    ...    0.0000e+00  Tolerance :   1.0000e-07
  Last RMS-Density change    ...    0.0000e+00  Tolerance :   5.0000e-09
  Last DIIS Error            ...    5.2471e-07  Tolerance :   5.0000e-07

             **** THE GBW FILE WAS UPDATED (AuBr4.gbw) ****
             **** DENSITY AuBr4.scfp WAS UPDATED ****
             **** ENERGY FILE WAS UPDATED (AuBr4.en.tmp) ****
             **** THE GBW FILE WAS UPDATED (AuBr4.gbw) ****
             **** DENSITY AuBr4.scfp WAS UPDATED ****
----------------
ORBITAL ENERGIES
----------------

  NO   OCC          E(Eh)            E(eV) 
   0   2.0000    -482.700194    -13134.9400 
   1   2.0000    -482.700191    -13134.9400 
   2   2.0000    -482.700190    -13134.9399 
   3   2.0000    -482.700190    -13134.9399 
   4   2.0000     -62.347789     -1696.5696 
   5   2.0000     -62.347781     -1696.5694 
   6   2.0000     -62.347777     -1696.5693 
   7   2.0000     -62.347777     -1696.5693 
   8   2.0000     -56.163052     -1528.2743 
   9   2.0000     -56.163051     -1528.2743 
  10   2.0000     -56.163036     -1528.2739 
  11   2.0000     -56.163036     -1528.2739 
  12   2.0000     -56.160895     -1528.2156 
  13   2.0000     -56.160894     -1528.2156 
  14   2.0000     -56.160892     -1528.2156 
  15   2.0000     -56.160892     -1528.2156 
  16   2.0000     -56.160865     -1528.2148 
  17   2.0000     -56.160862     -1528.2147 
  18   2.0000     -56.160862     -1528.2147 
  19   2.0000     -56.160862     -1528.2147 
  20   2.0000      -8.538282      -232.3385 
  21   2.0000      -8.538267      -232.3381 
  22   2.0000      -8.538261      -232.3379 
  23   2.0000      -8.538261      -232.3379 
  24   2.0000      -6.366654      -173.2455 
  25   2.0000      -6.366653      -173.2454 
  26   2.0000      -6.366651      -173.2454 
  27   2.0000      -6.366651      -173.2454 
  28   2.0000      -6.357645      -173.0003 
  29   2.0000      -6.357644      -173.0003 
  30   2.0000      -6.357644      -173.0003 
  31   2.0000      -6.357644      -173.0003 
  32   2.0000      -6.356929      -172.9808 
  33   2.0000      -6.356928      -172.9808 
  34   2.0000      -6.356928      -172.9808 
  35   2.0000      -6.356928      -172.9808 
  36   2.0000      -4.111083      -111.8683 
  37   2.0000      -2.481260       -67.5185 
  38   2.0000      -2.481260       -67.5185 
  39   2.0000      -2.481240       -67.5180 
  40   2.0000      -2.481237       -67.5179 
  41   2.0000      -2.479139       -67.4608 
  42   2.0000      -2.479139       -67.4608 
  43   2.0000      -2.479136       -67.4607 
  44   2.0000      -2.479134       -67.4607 
  45   2.0000      -2.478479       -67.4428 
  46   2.0000      -2.478472       -67.4426 
  47   2.0000      -2.478472       -67.4426 
  48   2.0000      -2.478470       -67.4426 
  49   2.0000      -2.471113       -67.2424 
  50   2.0000      -2.471112       -67.2424 
  51   2.0000      -2.471112       -67.2424 
  52   2.0000      -2.471111       -67.2423 
  53   2.0000      -2.471016       -67.2398 
  54   2.0000      -2.471014       -67.2397 
  55   2.0000      -2.471014       -67.2397 
  56   2.0000      -2.471011       -67.2396 
  57   2.0000      -2.291538       -62.3559 
  58   2.0000      -2.291538       -62.3559 
  59   2.0000      -2.266189       -61.6661 
  60   2.0000      -0.621958       -16.9244 
  61   2.0000      -0.604320       -16.4444 
  62   2.0000      -0.604083       -16.4379 
  63   2.0000      -0.604083       -16.4379 
  64   2.0000      -0.302756        -8.2384 
  65   2.0000      -0.289119        -7.8673 
  66   2.0000      -0.288547        -7.8518 
  67   2.0000      -0.259968        -7.0741 
  68   2.0000      -0.259968        -7.0741 
  69   2.0000      -0.209122        -5.6905 
  70   2.0000      -0.190011        -5.1705 
  71   2.0000      -0.190011        -5.1705 
  72   2.0000      -0.165730        -4.5097 
  73   2.0000      -0.147316        -4.0087 
  74   2.0000      -0.140591        -3.8257 
  75   2.0000      -0.136760        -3.7214 
  76   2.0000      -0.136760        -3.7214 
  77   2.0000      -0.133367        -3.6291 
  78   2.0000      -0.133367        -3.6291 
  79   2.0000      -0.116099        -3.1592 
  80   0.0000      -0.019464        -0.5296 
  81   0.0000       0.110242         2.9998 
  82   0.0000       0.145231         3.9519 
  83   0.0000       0.201590         5.4855 
  84   0.0000       0.201590         5.4855 
  85   0.0000       0.207315         5.6413 
  86   0.0000       0.303097         8.2477 
  87   0.0000       0.342370         9.3164 
  88   0.0000       0.356223         9.6933 
  89   0.0000       0.356223         9.6933 
  90   0.0000       0.360436         9.8080 
  91   0.0000       0.369876        10.0648 
  92   0.0000       0.369876        10.0648 
  93   0.0000       0.373750        10.1703 
  94   0.0000       0.373750        10.1703 
  95   0.0000       0.384070        10.4511 
  96   0.0000       0.390657        10.6303 
  97   0.0000       0.390657        10.6303 
  98   0.0000       0.406139        11.0516 
  99   0.0000       0.406184        11.0528 
 100   0.0000       0.407329        11.0840 
 101   0.0000       0.407329        11.0840 
 102   0.0000       0.411174        11.1886 
 103   0.0000       0.414946        11.2913 
 104   0.0000       0.431694        11.7470 
 105   0.0000       0.466279        12.6881 
 106   0.0000       0.471316        12.8252 
 107   0.0000       0.472451        12.8561 
 108   0.0000       0.472451        12.8561 
 109   0.0000       0.504329        13.7235 
 110   0.0000       0.505999        13.7689 
 111   0.0000       0.505999        13.7689 
 112   0.0000       0.517070        14.0702 
 113   0.0000       0.554035        15.0761 
 114   0.0000       0.576057        15.6753 
 115   0.0000       0.645911        17.5761 
 116   0.0000       0.645911        17.5761 
 117   0.0000       0.706934        19.2367 
 118   0.0000       0.709080        19.2950 
 119   0.0000       0.734460        19.9857 
 120   0.0000       0.744969        20.2716 
 121   0.0000       0.744969        20.2716 
 122   0.0000       0.822322        22.3765 
 123   0.0000       0.822322        22.3765 
 124   0.0000       0.826592        22.4927 
 125   0.0000       0.840592        22.8737 
 126   0.0000       1.015057        27.6211 
 127   0.0000       1.098892        29.9024 
 128   0.0000       1.098892        29.9024 
 129   0.0000       1.121277        30.5115 
 130   0.0000       1.329974        36.1904 
 131   0.0000       1.329974        36.1904 
 132   0.0000       1.370321        37.2883 
 133   0.0000       1.407916        38.3113 
 134   0.0000       1.414373        38.4870 
 135   0.0000       1.429126        38.8885 
 136   0.0000       1.429126        38.8885 
 137   0.0000       1.446771        39.3686 
 138   0.0000       1.448125        39.4055 
 139   0.0000       1.455189        39.5977 
 140   0.0000       1.455189        39.5977 
 141   0.0000       1.464385        39.8479 
 142   0.0000       1.469589        39.9896 
 143   0.0000       1.509494        41.0754 
 144   0.0000       1.509494        41.0754 
 145   0.0000       1.535444        41.7816 
 146   0.0000       1.537284        41.8316 
 147   0.0000       1.541060        41.9344 
 148   0.0000       1.541060        41.9344 
 149   0.0000       1.546194        42.0741 
 150   0.0000       1.547835        42.1187 
 151   0.0000       1.560938        42.4753 
 152   0.0000       1.560938        42.4753 
 153   0.0000       1.589056        43.2404 
 154   0.0000       1.598278        43.4913 
 155   0.0000       1.606278        43.7091 
 156   0.0000       1.641370        44.6640 
 157   0.0000       1.641370        44.6640 
 158   0.0000       1.648466        44.8570 
 159   0.0000       1.671318        45.4789 
 160   0.0000       1.671318        45.4789 
 161   0.0000       1.678417        45.6721 
 162   0.0000       1.678554        45.6758 
 163   0.0000       1.681290        45.7502 
 164   0.0000       1.681915        45.7672 
 165   0.0000       1.683369        45.8068 
 166   0.0000       1.683369        45.8068 
 167   0.0000       1.683711        45.8161 
 168   0.0000       1.683832        45.8194 
 169   0.0000       1.683832        45.8194 
 170   0.0000       1.710294        46.5395 
 171   0.0000       1.717672        46.7402 
 172   0.0000       1.717672        46.7402 
 173   0.0000       1.719599        46.7927 
 174   0.0000       1.719599        46.7927 
 175   0.0000       1.723370        46.8953 
 176   0.0000       1.730930        47.1010 
 177   0.0000       1.735837        47.2345 
 178   0.0000       1.754633        47.7460 
 179   0.0000       1.754633        47.7460 
 180   0.0000       1.768244        48.1164 
 181   0.0000       1.776136        48.3311 
 182   0.0000       1.776136        48.3311 
 183   0.0000       1.778938        48.4074 
 184   0.0000       1.787657        48.6446 
 185   0.0000       1.836401        49.9710 
 186   0.0000       1.858734        50.5787 
 187   0.0000       1.858734        50.5787 
 188   0.0000       1.869205        50.8636 
 189   0.0000       1.875904        51.0460 
 190   0.0000       1.884264        51.2734 
 191   0.0000       1.884264        51.2734 
 192   0.0000       1.906093        51.8674 
 193   0.0000       1.916098        52.1397 
 194   0.0000       1.916098        52.1397 
 195   0.0000       1.929410        52.5019 
 196   0.0000       1.986827        54.0643 
 197   0.0000       2.014133        54.8073 
 198   0.0000       2.094432        56.9924 
 199   0.0000       2.290622        62.3310 
 200   0.0000       2.290622        62.3310 
 201   0.0000       2.634469        71.6875 
 202   0.0000       2.959333        80.5276 
 203   0.0000       4.085691       111.1773 
 204   0.0000       4.113502       111.9341 
 205   0.0000       4.131496       112.4237 
 206   0.0000       4.140564       112.6705 
 207   0.0000       4.140564       112.6705 
 208   0.0000       4.147489       112.8589 
 209   0.0000       4.147489       112.8589 
 210   0.0000       4.185647       113.8972 
 211   0.0000       4.186482       113.9200 
 212   0.0000       4.187021       113.9346 
 213   0.0000       4.205570       114.4394 
 214   0.0000       4.207518       114.4924 
 215   0.0000       4.211267       114.5944 
 216   0.0000       4.211267       114.5944 
 217   0.0000       4.248133       115.5976 
 218   0.0000       4.248134       115.5976 
 219   0.0000       4.283248       116.5531 
 220   0.0000       4.283248       116.5531 
 221   0.0000       4.286464       116.6406 
 222   0.0000       4.373878       119.0193 
 223   0.0000       7.431062       202.2095 
 224   0.0000       7.431062       202.2095 
 225   0.0000       7.519348       204.6118 
 226   0.0000       7.689115       209.2315 
 227   0.0000      24.048028       654.3801 
 228   0.0000      27.824412       757.1407 
 229   0.0000      27.824412       757.1407 
 230   0.0000      44.296120      1205.3587 
 231   0.0000     202.539578      5511.3821 

                    ********************************
                    * MULLIKEN POPULATION ANALYSIS *
                    ********************************

-----------------------
MULLIKEN ATOMIC CHARGES
-----------------------
   0 Au:    0.605231
   1 Br:   -0.401308
   2 Br:   -0.401308
   3 Br:   -0.401308
   4 Br:   -0.401308
Sum of atomic charges:   -1.0000000

--------------------------------
MULLIKEN REDUCED ORBITAL CHARGES
--------------------------------
  0 Aus       :     2.781678  s :     2.781678
      pz      :     2.091903  p :     6.339569
      px      :     2.123833
      py      :     2.123833
      dz2     :     1.934925  d :     9.260542
      dxz     :     1.986629
      dyz     :     1.986629
      dx2y2   :     1.988449
      dxy     :     1.363910
      f0      :     0.000869  f :     0.012980
      f+1     :     0.001377
      f-1     :     0.001377
      f+2     :    -0.000000
      f-2     :     0.001568
      f+3     :     0.003895
      f-3     :     0.003895
  1 Brs       :     7.960302  s :     7.960302
      pz      :     5.972517  p :    17.402370
      px      :     5.714895
      py      :     5.714958
      dz2     :     2.004317  d :    10.034409
      dxz     :     2.004734
      dyz     :     2.004733
      dx2y2   :     2.009344
      dxy     :     2.011282
      f0      :     0.000391  f :     0.004227
      f+1     :     0.000417
      f-1     :     0.000416
      f+2     :     0.000073
      f-2     :     0.000654
      f+3     :     0.001138
      f-3     :     0.001139
  2 Brs       :     7.960302  s :     7.960302
      pz      :     5.972517  p :    17.402370
      px      :     5.714895
      py      :     5.714958
      dz2     :     2.004317  d :    10.034409
      dxz     :     2.004734
      dyz     :     2.004733
      dx2y2   :     2.009344
      dxy     :     2.011282
      f0      :     0.000391  f :     0.004227
      f+1     :     0.000417
      f-1     :     0.000416
      f+2     :     0.000073
      f-2     :     0.000654
      f+3     :     0.001138
      f-3     :     0.001139
  3 Brs       :     7.960302  s :     7.960302
      pz      :     5.972517  p :    17.402370
      px      :     5.714958
      py      :     5.714895
      dz2     :     2.004317  d :    10.034409
      dxz     :     2.004733
      dyz     :     2.004734
      dx2y2   :     2.009344
      dxy     :     2.011282
      f0      :     0.000391  f :     0.004227
      f+1     :     0.000416
      f-1     :     0.000417
      f+2     :     0.000073
      f-2     :     0.000654
      f+3     :     0.001139
      f-3     :     0.001138
  4 Brs       :     7.960302  s :     7.960302
      pz      :     5.972517  p :    17.402370
      px      :     5.714958
      py      :     5.714895
      dz2     :     2.004317  d :    10.034409
      dxz     :     2.004733
      dyz     :     2.004734
      dx2y2   :     2.009344
      dxy     :     2.011282
      f0      :     0.000391  f :     0.004227
      f+1     :     0.000416
      f-1     :     0.000417
      f+2     :     0.000073
      f-2     :     0.000654
      f+3     :     0.001139
      f-3     :     0.001138


                     *******************************
                     * LOEWDIN POPULATION ANALYSIS *
                     *******************************

----------------------
LOEWDIN ATOMIC CHARGES
----------------------
   0 Au:   -0.374513
   1 Br:   -0.156372
   2 Br:   -0.156372
   3 Br:   -0.156372
   4 Br:   -0.156372

-------------------------------
LOEWDIN REDUCED ORBITAL CHARGES
-------------------------------
  0 Aus       :     2.676742  s :     2.676742
      pz      :     2.143926  p :     6.794491
      px      :     2.325283
      py      :     2.325283
      dz2     :     2.011037  d :     9.883131
      dxz     :     2.047715
      dyz     :     2.047715
      dx2y2   :     2.084248
      dxy     :     1.692416
      f0      :     0.001115  f :     0.020149
      f+1     :     0.002211
      f-1     :     0.002211
      f+2     :     0.000000
      f-2     :     0.002158
      f+3     :     0.006227
      f-3     :     0.006227
  1 Brs       :     7.743536  s :     7.743536
      pz      :     5.920091  p :    17.333777
      px      :     5.706817
      py      :     5.706869
      dz2     :     2.009833  d :    10.072344
      dxz     :     2.008790
      dyz     :     2.008788
      dx2y2   :     2.021440
      dxy     :     2.023494
      f0      :     0.000602  f :     0.006715
      f+1     :     0.000687
      f-1     :     0.000687
      f+2     :     0.000085
      f-2     :     0.000988
      f+3     :     0.001833
      f-3     :     0.001833
  2 Brs       :     7.743536  s :     7.743536
      pz      :     5.920091  p :    17.333777
      px      :     5.706817
      py      :     5.706869
      dz2     :     2.009833  d :    10.072344
      dxz     :     2.008790
      dyz     :     2.008788
      dx2y2   :     2.021440
      dxy     :     2.023494
      f0      :     0.000602  f :     0.006715
      f+1     :     0.000687
      f-1     :     0.000687
      f+2     :     0.000085
      f-2     :     0.000988
      f+3     :     0.001833
      f-3     :     0.001833
  3 Brs       :     7.743536  s :     7.743536
      pz      :     5.920091  p :    17.333777
      px      :     5.706869
      py      :     5.706817
      dz2     :     2.009833  d :    10.072344
      dxz     :     2.008788
      dyz     :     2.008790
      dx2y2   :     2.021440
      dxy     :     2.023494
      f0      :     0.000602  f :     0.006715
      f+1     :     0.000687
      f-1     :     0.000687
      f+2     :     0.000085
      f-2     :     0.000988
      f+3     :     0.001833
      f-3     :     0.001833
  4 Brs       :     7.743536  s :     7.743536
      pz      :     5.920091  p :    17.333777
      px      :     5.706869
      py      :     5.706817
      dz2     :     2.009833  d :    10.072344
      dxz     :     2.008788
      dyz     :     2.008790
      dx2y2   :     2.021440
      dxy     :     2.023494
      f0      :     0.000602  f :     0.006715
      f+1     :     0.000687
      f-1     :     0.000687
      f+2     :     0.000085
      f-2     :     0.000988
      f+3     :     0.001833
      f-3     :     0.001833


                      *****************************
                      * MAYER POPULATION ANALYSIS *
                      *****************************

  NA   - Mulliken gross atomic population
  ZA   - Total nuclear charge
  QA   - Mulliken gross atomic charge
  VA   - Mayer's total valence
  BVA  - Mayer's bonded valence
  FA   - Mayer's free valence

  ATOM       NA         ZA         QA         VA         BVA        FA
  0 Au    18.3948    19.0000     0.6052     2.6441     2.6441     0.0000
  1 Br    35.4013    35.0000    -0.4013     0.9255     0.9255     0.0000
  2 Br    35.4013    35.0000    -0.4013     0.9255     0.9255     0.0000
  3 Br    35.4013    35.0000    -0.4013     0.9255     0.9255     0.0000
  4 Br    35.4013    35.0000    -0.4013     0.9255     0.9255    -0.0000

  Mayer bond orders larger than 0.100000
B(  0-Au,  1-Br) :   0.6610 B(  0-Au,  2-Br) :   0.6610 B(  0-Au,  3-Br) :   0.6610 
B(  0-Au,  4-Br) :   0.6610 B(  1-Br,  2-Br) :   0.2102 B(  3-Br,  4-Br) :   0.2102 


-------
TIMINGS
-------

Total SCF time: 0 days 0 hours 0 min 16 sec 

Total time                  ....      16.534 sec
Sum of individual times     ....      16.383 sec  ( 99.1%)

Fock matrix formation       ....      14.826 sec  ( 89.7%)
  Split-RI-J                ....       1.100 sec  (  7.4% of F)
  Chain of spheres X        ....      12.192 sec  ( 82.2% of F)
  XC integration            ....       1.497 sec  ( 10.1% of F)
    Basis function eval.    ....       0.464 sec  ( 31.0% of XC)
    Density eval.           ....       0.403 sec  ( 27.0% of XC)
    XC-Functional eval.     ....       0.075 sec  (  5.0% of XC)
    XC-Potential eval.      ....       0.424 sec  ( 28.3% of XC)
Diagonalization             ....       0.116 sec  (  0.7%)
Density matrix formation    ....       0.006 sec  (  0.0%)
Population analysis         ....       0.006 sec  (  0.0%)
Initial guess               ....       0.626 sec  (  3.8%)
Orbital Transformation      ....       0.000 sec  (  0.0%)
Orbital Orthonormalization  ....       0.000 sec  (  0.0%)
DIIS solution               ....       0.064 sec  (  0.4%)
Grid generation             ....       0.740 sec  (  4.5%)

Maximum memory used throughout the entire SCF-calculation: 71.6 MB

-------------------------   --------------------
FINAL SINGLE POINT ENERGY    -10432.124219307574
-------------------------   --------------------



           ************************************************************
           *        Program running with 4 parallel MPI-processes     *
           *              working on a common directory               *
           ************************************************************
------------------------------------------------------------------------------
                         ORCA SCF GRADIENT CALCULATION
------------------------------------------------------------------------------

 ... reading COSX grid (gridx3)
Gradient of the Kohn-Sham DFT energy:
Kohn-Sham wavefunction type      ... RKS
Hartree-Fock exchange scaling    ...    0.200
Number of operators              ...    1
Number of atoms                  ...    5
Basis set dimensions             ...  232
Integral neglect threshold       ... 2.5e-11
Integral primitive cutoff        ... 2.5e-12
SHARK Integral package           ... ON

Nuc. rep. gradient       (SHARK) ... done (  0.0 sec)
HCore & Overlap gradient (SHARK) ... done (  0.0 sec)
ECP gradient             (SHARK) ... done (  0.7 sec)
RI-J gradient            (SHARK) ... done (  0.6 sec)
COSX-gradient                    ... done (  2.5 sec)
Exchange-correlation gradient    ... done

------------------
CARTESIAN GRADIENT
------------------

   1   Au  :   -0.000000009    0.000000048    0.000000078
   2   Br  :   -0.001810076    0.001811881    0.000000224
   3   Br  :    0.001810280   -0.001811422   -0.000000039
   4   Br  :    0.001811415    0.001810102    0.000000412
   5   Br  :   -0.001811477   -0.001810149    0.000000407

Difference to translation invariance:
           :    0.0000001335    0.0000004589    0.0000010827

Difference to rotation invariance:
           :    0.0000008983    0.0000008637   -0.0000214058

Norm of the cartesian gradient     ...    0.0051218584
RMS gradient                       ...    0.0013224582
MAX gradient                       ...    0.0018118807

-------
TIMINGS
-------

Total SCF gradient time            ...        4.569 sec

One electron gradient       ....       0.727 sec  ( 15.9%)
RI-J Coulomb gradient       ....       0.615 sec  ( 13.5%)
COSX gradient               ....       2.511 sec  ( 54.9%)
XC gradient                 ....       0.510 sec  ( 11.2%)

Maximum memory used throughout the entire SCFGRAD-calculation: 44.6 MB
------------------------------------------------------------------------------
                         ORCA GEOMETRY RELAXATION STEP
------------------------------------------------------------------------------

Reading the OPT-File                    .... done
Getting information on internals        .... done
Copying old internal coords+grads       .... done
Making the new internal coordinates     .... (new redundants).... done
Validating the new internal coordinates .... (new redundants).... done
Calculating the B-matrix                .... done
Calculating the G,G- and P matrices     .... done
Transforming gradient to internals      .... done
Projecting the internal gradient        .... done
Number of atoms                         ....   5
Number of internal coordinates          ....   8
Current Energy                          .... -10432.124219308 Eh
Current gradient norm                   ....     0.005121858 Eh/bohr
Maximum allowed component of the step   ....  0.300
Current trust radius                    ....  0.300
Evaluating the initial hessian          ....  (Almloef) done
Projecting the Hessian                  .... done
Forming the augmented Hessian           .... done
Diagonalizing the augmented Hessian     .... done
Last element of RFO vector              ....  0.994804122
Lowest eigenvalues of augmented Hessian:
 -0.000524167  0.049523691  0.049523691  0.049523691  0.050047858
Length of the computed step             ....  0.102339203
The final length of the internal step   ....  0.102339203
Converting the step to cartesian space:
 Initial RMS(Int)=    0.0361823722
Transforming coordinates:
 Iter   0:  RMS(Cart)=    0.0264238687 RMS(Int)=    0.0361823722
 Iter   1:  RMS(Cart)=    0.0000000252 RMS(Int)=    0.0000000136
done
Storing new coordinates                 .... done

                                .--------------------.
          ----------------------|Geometry convergence|-------------------------
          Item                value                   Tolerance       Converged
          ---------------------------------------------------------------------
          RMS gradient        0.0018108502            0.0001000000      NO
          MAX gradient        0.0025610638            0.0003000000      NO
          RMS step            0.0361823722            0.0020000000      NO
          MAX step            0.0511722958            0.0040000000      NO
          ........................................................
          Max(Bonds)      0.0271      Max(Angles)    0.00
          Max(Dihed)        0.00      Max(Improp)    0.00
          ---------------------------------------------------------------------

The optimization has not yet converged - more geometry cycles are needed


    ---------------------------------------------------------------------------
                         Redundant Internal Coordinates
                            (Angstroem and degrees)

        Definition                    Value    dE/dq     Step     New-Value
    ----------------------------------------------------------------------------
     1. B(Br  1,Au  0)                2.5000  0.002561 -0.0271    2.4730   
     2. B(Br  2,Au  0)                2.5000  0.002561 -0.0271    2.4730   
     3. B(Br  3,Au  0)                2.5000  0.002561 -0.0271    2.4730   
     4. B(Br  4,Au  0)                2.5000  0.002561 -0.0271    2.4730   
     5. A(Br  2,Au  0,Br  3)           90.00 -0.000000    0.00     90.00   
     6. A(Br  1,Au  0,Br  4)           90.00  0.000001   -0.00     90.00   
     7. A(Br  2,Au  0,Br  4)           90.00  0.000000   -0.00     90.00   
     8. A(Br  1,Au  0,Br  3)           90.00 -0.000000    0.00     90.00   
    ----------------------------------------------------------------------------

         *************************************************************
         *                GEOMETRY OPTIMIZATION CYCLE   2            *
         *************************************************************
---------------------------------
CARTESIAN COORDINATES (ANGSTROEM)
---------------------------------
  Au     0.000001    0.000001    0.000000
  Br    -1.748753    1.748550    0.000000
  Br     1.748750   -1.748556    0.000000
  Br     1.748556    1.748754    0.000000
  Br    -1.748554   -1.748750    0.000000

----------------------------
CARTESIAN COORDINATES (A.U.)
----------------------------
  NO LB      ZA    FRAG     MASS         X           Y           Z
   0 Au   19.0000*   0   196.966    0.000002    0.000001    0.000000
   1 Br   35.0000    0    79.900   -3.304665    3.304282    0.000000
   2 Br   35.0000    0    79.900    3.304659   -3.304291    0.000000
   3 Br   35.0000    0    79.900    3.304293    3.304667    0.000000
   4 Br   35.0000    0    79.900   -3.304289   -3.304659    0.000000
* core charge reduced due to ECP

--------------------------------
INTERNAL COORDINATES (ANGSTROEM)
--------------------------------
 Au     0   0   0     0.000000000000     0.00000000     0.00000000
 Br     1   0   0     2.472967526936     0.00000000     0.00000000
 Br     1   2   0     2.472968451846   179.99981807     0.00000000
 Br     1   2   3     2.472971212292    90.00009900   180.00000085
 Br     1   2   4     2.472968619832    89.99985174   180.00000000

---------------------------
INTERNAL COORDINATES (A.U.)
---------------------------
 Au     0   0   0     0.000000000000     0.00000000     0.00000000
 Br     1   0   0     4.673231363989     0.00000000     0.00000000
 Br     1   2   0     4.673233111817   179.99981807     0.00000000
 Br     1   2   3     4.673238328304    90.00009900   180.00000085
 Br     1   2   4     4.673233429263    89.99985174   180.00000000



           ************************************************************
           *        Program running with 4 parallel MPI-processes     *
           *              working on a common directory               *
           ************************************************************
------------------------------------------------------------------------------
                   ___                                                        
                  /   \      - P O W E R E D   B Y -                         
                 /     \                                                     
                 |  |  |   _    _      __       _____    __    __             
                 |  |  |  | |  | |    /  \     |  _  \  |  |  /  |          
                  \  \/   | |  | |   /    \    | | | |  |  | /  /          
                 / \  \   | |__| |  /  /\  \   | |_| |  |  |/  /          
                |  |  |   |  __  | /  /__\  \  |    /   |      \           
                |  |  |   | |  | | |   __   |  |    \   |  |\   \          
                \     /   | |  | | |  |  |  |  | |\  \  |  | \   \       
                 \___/    |_|  |_| |__|  |__|  |_| \__\ |__|  \__/        
                                                                              
                      - O R C A' S   B I G   F R I E N D -                    
                                      &                                       
                       - I N T E G R A L  F E E D E R -                       
                                                                              
 v1 FN, 2020, v2 2021                                                         
------------------------------------------------------------------------------


Reading SHARK input file AuBr4.SHARKINP.tmp ... ok
----------------------
SHARK INTEGRAL PACKAGE
----------------------

Number of atoms                             ...      5
Number of basis functions                   ...    232
Number of shells                            ...     78
Maximum angular momentum                    ...      3
Integral batch strategy                     ... SHARK/LIBINT Hybrid
RI-J (if used) integral strategy            ... SPLIT-RIJ (Revised 2003 algorithm where possible)
Printlevel                                  ...      1
Contraction scheme used                     ... SEGMENTED contraction
Coulomb Range Separation                    ... NOT USED
Exchange Range Separation                   ... NOT USED
Finite Nucleus Model                        ... NOT USED
Auxiliary Coulomb fitting basis             ... AVAILABLE
   # of basis functions in Aux-J            ...    321
   # of shells in Aux-J                     ...     95
   Maximum angular momentum in Aux-J        ...      4
Auxiliary J/K fitting basis                 ... NOT available
Auxiliary Correlation fitting basis         ... NOT available
Auxiliary 'external' fitting basis          ... NOT available
Integral threshold                          ...     2.500000e-11
Primitive cut-off                           ...     2.500000e-12
Primitive pair pre-selection threshold      ...     2.500000e-12

Calculating pre-screening integrals         ... done (  0.1 sec) Dimension = 78
Organizing shell pair data                  ... done (  0.1 sec)
Shell pair information
Total number of shell pairs                 ...      3081
Shell pairs after pre-screening             ...      2513
Total number of primitive shell pairs       ...     16210
Primitive shell pairs kept                  ...      8590
          la=0 lb=0:    313 shell pairs
          la=1 lb=0:    564 shell pairs
          la=1 lb=1:    264 shell pairs
          la=2 lb=0:    454 shell pairs
          la=2 lb=1:    400 shell pairs
          la=2 lb=2:    166 shell pairs
          la=3 lb=0:    134 shell pairs
          la=3 lb=1:    112 shell pairs
          la=3 lb=2:     91 shell pairs
          la=3 lb=3:     15 shell pairs

Calculating one electron integrals          ... done (  0.0 sec)
Calculating ECP integrals                   ... done (  0.2 sec)
Calculating RI/J V-Matrix + Cholesky decomp.... done (  0.0 sec)
Calculating Nuclear repulsion               ... done (  0.0 sec) ENN=   1572.748793675059 Eh

SHARK setup successfully completed in   0.5 seconds

Maximum memory used throughout the entire GTOINT-calculation: 20.4 MB


           ************************************************************
           *        Program running with 4 parallel MPI-processes     *
           *              working on a common directory               *
           ************************************************************

Diagonalization of the overlap matrix:
Smallest eigenvalue                        ... 5.378e-03
Time for diagonalization                   ...    0.004 sec
Threshold for overlap eigenvalues          ... 1.000e-08
Number of eigenvalues below threshold      ... 0
Time for construction of square roots      ...    0.003 sec
Total time needed                          ...    0.007 sec

-------------------
DFT GRID GENERATION
-------------------

General Integration Accuracy     IntAcc      ... 4.388
Radial Grid Type                 RadialGrid  ... OptM3 with GC (2021)
Angular Grid (max. ang.)         AngularGrid ... 4 (Lebedev-302)
Angular grid pruning method      GridPruning ... 4 (adaptive)
Weight generation scheme         WeightScheme... Becke
Basis function cutoff            BFCut       ... 1.0000e-11
Integration weight cutoff        WCut        ... 1.0000e-14
Angular grids for H and He will be reduced by one unit
Partially contracted basis set               ... off
Rotationally invariant grid construction     ... off

Total number of grid points                  ...    56894
Total number of batches                      ...      892
Average number of points per batch           ...       63
Average number of grid points per atom       ...    11379
Time for grid setup =    0.406 sec

--------------------
COSX GRID GENERATION
--------------------

GRIDX 1
-------
General Integration Accuracy     IntAcc      ... 3.816
Radial Grid Type                 RadialGrid  ... OptM3 with GC (2021)
Angular Grid (max. ang.)         AngularGrid ... 1 (Lebedev-50)
Angular grid pruning method      GridPruning ... 4 (adaptive)
Weight generation scheme         WeightScheme... Becke
Basis function cutoff            BFCut       ... 1.0000e-11
Integration weight cutoff        WCut        ... 1.0000e-14
Angular grids for H and He will be reduced by one unit
Partially contracted basis set               ... on
Rotationally invariant grid construction     ... off

Total number of grid points                  ...     6122
Total number of batches                      ...       98
Average number of points per batch           ...       62
Average number of grid points per atom       ...     1224
UseSFitting                                  ... on

GRIDX 2
-------
General Integration Accuracy     IntAcc      ... 4.020
Radial Grid Type                 RadialGrid  ... OptM3 with GC (2021)
Angular Grid (max. ang.)         AngularGrid ... 2 (Lebedev-110)
Angular grid pruning method      GridPruning ... 4 (adaptive)
Weight generation scheme         WeightScheme... Becke
Basis function cutoff            BFCut       ... 1.0000e-11
Integration weight cutoff        WCut        ... 1.0000e-14
Angular grids for H and He will be reduced by one unit
Partially contracted basis set               ... on
Rotationally invariant grid construction     ... off

Total number of grid points                  ...    14676
Total number of batches                      ...      231
Average number of points per batch           ...       63
Average number of grid points per atom       ...     2935
UseSFitting                                  ... on

GRIDX 3
-------
General Integration Accuracy     IntAcc      ... 4.338
Radial Grid Type                 RadialGrid  ... OptM3 with GC (2021)
Angular Grid (max. ang.)         AngularGrid ... 3 (Lebedev-194)
Angular grid pruning method      GridPruning ... 4 (adaptive)
Weight generation scheme         WeightScheme... Becke
Basis function cutoff            BFCut       ... 1.0000e-11
Integration weight cutoff        WCut        ... 1.0000e-14
Angular grids for H and He will be reduced by one unit
Partially contracted basis set               ... on
Rotationally invariant grid construction     ... off

Total number of grid points                  ...    32200
Total number of batches                      ...      505
Average number of points per batch           ...       63
Average number of grid points per atom       ...     6440
UseSFitting                                  ... on

Time for X-Grid setup             =    0.227 sec

--------------
SCF ITERATIONS
--------------
ITER       Energy         Delta-E        Max-DP      RMS-DP      [F,P]     Damp
               ***  Starting incremental Fock matrix formation  ***
  0 -10432.1247140050   0.000000000000 0.00156927  0.00002898  0.0726985 0.7000
  1 -10432.1247714640  -0.000057459067 0.00180650  0.00002715  0.0509598 0.7000
                               ***Turning on DIIS***
  2 -10432.1248127733  -0.000041309257 0.00566731  0.00007227  0.0356907 0.0000
  3 -10432.1249105054  -0.000097732098 0.00220647  0.00002070  0.0006747 0.0000
               *** Restarting incremental Fock matrix formation ***
                                   *** Resetting DIIS ***
  4 -10432.1249126373  -0.000002131894 0.00236802  0.00002498  0.0008363 0.0000
  5 -10432.1249073221   0.000005315189 0.00106822  0.00001222  0.0016014 0.0000
  6 -10432.1249138718  -0.000006549715 0.00061060  0.00000586  0.0004951 0.0000
  7 -10432.1249144994  -0.000000627637 0.00011835  0.00000090  0.0000357 0.0000
  8 -10432.1249145435  -0.000000044034 0.00001956  0.00000018  0.0000061 0.0000
                            ***DIIS convergence achieved***

               *****************************************************
               *                     SUCCESS                       *
               *           SCF CONVERGED AFTER   9 CYCLES          *
               *****************************************************

Old exchange energy                            =    -74.064931163 Eh
New exchange energy                            =    -74.064039679 Eh
Exchange energy change after final integration =      0.000891483 Eh
Total energy after final integration           = -10432.124023063 Eh
Final COS-X integration done in                =     2.291 sec
Total Energy       :       -10432.12402306 Eh         -283872.52647 eV
  Last Energy change         ...   -3.1414e-09  Tolerance :   1.0000e-08
  Last MAX-Density change    ...    0.0000e+00  Tolerance :   1.0000e-07
             **** THE GBW FILE WAS UPDATED (AuBr4.gbw) ****
             **** DENSITY AuBr4.scfp WAS UPDATED ****
             **** ENERGY FILE WAS UPDATED (AuBr4.en.tmp) ****
             **** THE GBW FILE WAS UPDATED (AuBr4.gbw) ****
             **** DENSITY AuBr4.scfp WAS UPDATED ****
Total SCF time: 0 days 0 hours 0 min 12 sec 

Maximum memory used throughout the entire SCF-calculation: 71.6 MB

-------------------------   --------------------
FINAL SINGLE POINT ENERGY    -10432.124023063461
-------------------------   --------------------



           ************************************************************
           *        Program running with 4 parallel MPI-processes     *
           *              working on a common directory               *
           ************************************************************
------------------------------------------------------------------------------
                         ORCA SCF GRADIENT CALCULATION
------------------------------------------------------------------------------

 ... reading COSX grid (gridx3)
Gradient of the Kohn-Sham DFT energy:
Kohn-Sham wavefunction type      ... RKS
Hartree-Fock exchange scaling    ...    0.200
Number of operators              ...    1
Number of atoms                  ...    5
Basis set dimensions             ...  232
Integral neglect threshold       ... 2.5e-11
Integral primitive cutoff        ... 2.5e-12
SHARK Integral package           ... ON

Nuc. rep. gradient       (SHARK) ... done (  0.0 sec)
HCore & Overlap gradient (SHARK) ... done (  0.0 sec)
ECP gradient             (SHARK) ... done (  0.7 sec)
RI-J gradient            (SHARK) ... done (  0.6 sec)
COSX-gradient                    ... done (  2.5 sec)
Exchange-correlation gradient    ... done

------------------
CARTESIAN GRADIENT
------------------

   1   Au  :   -0.000000259   -0.000000102    0.000000005
   2   Br  :    0.002284066   -0.002282535    0.000000273
   3   Br  :   -0.002284091    0.002282172    0.000000272
   4   Br  :   -0.002282055   -0.002283734    0.000000151
   5   Br  :    0.002282482    0.002284235    0.000000135

Difference to translation invariance:
           :    0.0000001422    0.0000000358    0.0000008348

Difference to rotation invariance:
           :    0.0000000577   -0.0000000503   -0.0000193312

Norm of the cartesian gradient     ...    0.0064577840
RMS gradient                       ...    0.0016673927
MAX gradient                       ...    0.0022842347

-------
TIMINGS
-------

Total SCF gradient time            ...        4.615 sec

One electron gradient       ....       0.726 sec  ( 15.7%)
RI-J Coulomb gradient       ....       0.612 sec  ( 13.3%)
COSX gradient               ....       2.525 sec  ( 54.7%)
XC gradient                 ....       0.516 sec  ( 11.2%)

Maximum memory used throughout the entire SCFGRAD-calculation: 44.6 MB
------------------------------------------------------------------------------
                         ORCA GEOMETRY RELAXATION STEP
------------------------------------------------------------------------------

Reading the OPT-File                    .... done
Getting information on internals        .... done
Copying old internal coords+grads       .... done
Making the new internal coordinates     .... (new redundants).... done
Validating the new internal coordinates .... (new redundants).... done
Calculating the B-matrix                .... done
Calculating the G,G- and P matrices     .... done
Transforming gradient to internals      .... done
Projecting the internal gradient        .... done
Number of atoms                         ....   5
Number of internal coordinates          ....   8
Current Energy                          .... -10432.124023063 Eh
Current gradient norm                   ....     0.006457784 Eh/bohr
Maximum allowed component of the step   ....  0.300
Current trust radius                    ....  0.300
Updating the Hessian (BFGS)             .... done
Forming the augmented Hessian           .... done
Diagonalizing the augmented Hessian     .... done
Last element of RFO vector              ....  0.998385780
Lowest eigenvalues of augmented Hessian:
 -0.000367372  0.049523691  0.049523691  0.049523691  0.113516987
Length of the computed step             ....  0.056888257
The final length of the internal step   ....  0.056888257
Converting the step to cartesian space:
 Initial RMS(Int)=    0.0201130363
Transforming coordinates:
 Iter   0:  RMS(Cart)=    0.0146884850 RMS(Int)=    0.0201130363
 Iter   1:  RMS(Cart)=    0.0000000064 RMS(Int)=    0.0000000034
done
Storing new coordinates                 .... done

                                .--------------------.
          ----------------------|Geometry convergence|-------------------------
          Item                value                   Tolerance       Converged
          ---------------------------------------------------------------------
          Energy change       0.0001962441            0.0000050000      NO
          RMS gradient        0.0022831713            0.0001000000      NO
          MAX gradient        0.0032291310            0.0003000000      NO
          RMS step            0.0201130363            0.0020000000      NO
          MAX step            0.0284462541            0.0040000000      NO
          ........................................................
          Max(Bonds)      0.0151      Max(Angles)    0.00
          Max(Dihed)        0.00      Max(Improp)    0.00
          ---------------------------------------------------------------------

The optimization has not yet converged - more geometry cycles are needed


    ---------------------------------------------------------------------------
                         Redundant Internal Coordinates
                            (Angstroem and degrees)

        Definition                    Value    dE/dq     Step     New-Value
    ----------------------------------------------------------------------------
     1. B(Br  1,Au  0)                2.4730 -0.003229  0.0151    2.4880   
     2. B(Br  2,Au  0)                2.4730 -0.003229  0.0151    2.4880   
     3. B(Br  3,Au  0)                2.4730 -0.003229  0.0151    2.4880   
     4. B(Br  4,Au  0)                2.4730 -0.003229  0.0151    2.4880   
     5. A(Br  2,Au  0,Br  3)           90.00  0.000000   -0.00     90.00   
     6. A(Br  1,Au  0,Br  4)           90.00 -0.000000    0.00     90.00   
     7. A(Br  2,Au  0,Br  4)           90.00 -0.000000    0.00     90.00   
     8. A(Br  1,Au  0,Br  3)           90.00  0.000000   -0.00     90.00   
    ----------------------------------------------------------------------------

         *************************************************************
         *                GEOMETRY OPTIMIZATION CYCLE   3            *
[...]
  0 Au    18.3922    19.0000     0.6078     2.6589     2.6589    -0.0000
  1 Br    35.4019    35.0000    -0.4019     0.9268     0.9268     0.0000
  2 Br    35.4019    35.0000    -0.4019     0.9268     0.9268    -0.0000
  3 Br    35.4019    35.0000    -0.4019     0.9268     0.9268     0.0000
  4 Br    35.4019    35.0000    -0.4019     0.9268     0.9268     0.0000

  Mayer bond orders larger than 0.100000
B(  0-Au,  1-Br) :   0.6647 B(  0-Au,  2-Br) :   0.6647 B(  0-Au,  3-Br) :   0.6647 
B(  0-Au,  4-Br) :   0.6647 B(  1-Br,  2-Br) :   0.2090 B(  3-Br,  4-Br) :   0.2090 


-------
TIMINGS
-------

Total SCF time: 0 days 0 hours 0 min 10 sec 

Total time                  ....      10.448 sec
Sum of individual times     ....      10.312 sec  ( 98.7%)

Fock matrix formation       ....       9.584 sec  ( 91.7%)
  Split-RI-J                ....       0.572 sec  (  6.0% of F)
  Chain of spheres X        ....       8.379 sec  ( 87.4% of F)
  XC integration            ....       0.620 sec  (  6.5% of F)
    Basis function eval.    ....       0.222 sec  ( 35.7% of XC)
    Density eval.           ....       0.188 sec  ( 30.3% of XC)
    XC-Functional eval.     ....       0.035 sec  (  5.7% of XC)
    XC-Potential eval.      ....       0.131 sec  ( 21.1% of XC)
Diagonalization             ....       0.049 sec  (  0.5%)
Density matrix formation    ....       0.003 sec  (  0.0%)
Population analysis         ....       0.006 sec  (  0.1%)
Initial guess               ....       0.009 sec  (  0.1%)
Orbital Transformation      ....       0.000 sec  (  0.0%)
Orbital Orthonormalization  ....       0.006 sec  (  0.1%)
DIIS solution               ....       0.024 sec  (  0.2%)
Grid generation             ....       0.637 sec  (  6.1%)

Maximum memory used throughout the entire SCF-calculation: 71.5 MB

-------------------------   --------------------
FINAL SINGLE POINT ENERGY    -10432.124277100642
-------------------------   --------------------

                                *** OPTIMIZATION RUN DONE ***

                            ***************************************
                            *     ORCA property calculations      *
                            ***************************************

                                    ---------------------
                                    Active property flags
                                    ---------------------
   (+) Dipole Moment


------------------------------------------------------------------------------
                       ORCA ELECTRIC PROPERTIES CALCULATION
------------------------------------------------------------------------------

Dipole Moment Calculation                       ... on
Quadrupole Moment Calculation                   ... off
Polarizability Calculation                      ... off
GBWName                                         ... AuBr4.gbw
Electron density                                ... AuBr4.scfp
The origin for moment calculation is the CENTER OF MASS  = (-0.000000,  0.000000  0.000000)

-------------
DIPOLE MOMENT
-------------
                                X             Y             Z
Electronic contribution:     -0.00000       0.00003      -0.00000
Nuclear contribution   :      0.00000      -0.00003       0.00000
                        -----------------------------------------
Total Dipole Moment    :      0.00000      -0.00000      -0.00000
                        -----------------------------------------
Magnitude (a.u.)       :      0.00000
Magnitude (Debye)      :      0.00001



--------------------
Rotational spectrum 
--------------------
 
Rotational constants in cm-1:     0.017047     0.017047     0.008523 
Rotational constants in MHz :   511.043020   511.042507   255.521382 

 Dipole components along the rotational axes: 
x,y,z [a.u.] :    -0.000002    -0.000001    -0.000000 
x,y,z [Debye]:    -0.000006    -0.000004    -0.000000 

 


           ************************************************************
           *        Program running with 4 parallel MPI-processes     *
           *              working on a common directory               *
           ************************************************************

-------------------------------------------------------------------------------
                               ORCA SCF HESSIAN
-------------------------------------------------------------------------------

                   --------- SHARK INITIALIZATION DONE ---------

Hessian of the Kohn-Sham DFT energy:
Kohn-Sham wavefunction type                      ... RKS
Hartree-Fock exchange scaling                    ...    0.200
Number of operators                              ...    1
Number of atoms                                  ...    5
Basis set dimensions                             ...  232
Integral neglect threshold                       ... 2.5e-11
Integral primitive cutoff                        ... 2.5e-12

Setting up DFT Hessian calculations              ... 

HESS GRID
---------

General Integration Accuracy     IntAcc      ... 4.629
Radial Grid Type                 RadialGrid  ... OptM3 with GC (2021)
Angular Grid (max. ang.)         AngularGrid ... 5 (Lebedev-434)
Angular grid pruning method      GridPruning ... 4 (adaptive)
Weight generation scheme         WeightScheme... Becke
Basis function cutoff            BFCut       ... 1.0000e-11
Integration weight cutoff        WCut        ... 1.0000e-14
Angular grids for H and He will be reduced by one unit
Partially contracted basis set               ... off
Rotationally invariant grid construction     ... off

Total number of grid points                  ...    90160
Total number of batches                      ...     1413
Average number of points per batch           ...       63
Average number of grid points per atom       ...    18032

Building densities                               ... done   (      0.0 sec)
Calculating rho(r) on the grid                   ... done   (      0.1 sec)
Building xc-kernel on the grid                   ... done   (      0.0 sec)
                                                     done   (      1.2 sec)

Nuclear repulsion Hessian  (SHARK)               ... done   (      0.0 sec)

----------------------------------------------
Forming right-hand sides of CP-SCF equations     ...
----------------------------------------------
One electron integral derivatives  (SHARK)       ... done   (      0.0 sec)
Transforming the overlap derivative matrices     ... done   (      0.0 sec)
Making the Q(x) pseudodensities                  ... done   (      0.0 sec)
Adding the E*S(x)*S(y) terms to the Hessian      ... done   (      0.0 sec)
Calculating energy weighted overlap derivatives  ... done   (      0.0 sec)
F(y): ECP integral derivatives                   ... done   (      1.3 sec)
Two electron integral derivatives (SHARK-RI)     ... done   (     28.0 sec)
Exchange-correlation integral derivatives        ... done   (      7.7 sec)
tr(F(y)Q(x)) contribution to the Hessian         ... done   (      0.0 sec)
Response fock operator R(S(x)) (SHARK-RIJCOSX)   ... done   (      2.7 sec)
XC Response fock operator R(S(x))                ... done   (      1.6 sec)
tr(F(y)S(x)) contribution to the Hessian         ... done   (      0.0 sec)
Transforming and finalizing RHSs                 ... done   (      0.0 sec)

----------------------------------------------
Solving the CP-SCF equations (RIJCOSX)           ...
----------------------------------------------
     CP-SCF ITERATION   0:   2.3735e-01 (   1.5 sec   0/ 15 done)
     CP-SCF ITERATION   1:   3.6392e-02 (   1.5 sec   0/ 15 done)
     CP-SCF ITERATION   2:   1.1440e-02 (   1.5 sec   0/ 15 done)
     CP-SCF ITERATION   3:   3.3574e-03 (   1.5 sec   0/ 15 done)
     CP-SCF ITERATION   4:   7.6852e-04 (   1.5 sec   5/ 15 done)
     CP-SCF ITERATION   5:   2.1561e-04 (   1.1 sec   7/ 15 done)
     CP-SCF ITERATION   6:   5.8451e-05 (   1.0 sec  15/ 15 done)
                    *** THE CP-SCF HAS CONVERGED ***

                                                 ... done   (      9.8 sec)
Forming perturbed density Hessian contributions  ... done   (      0.0 sec)
2nd integral derivative contribs (SHARK-RI)      ... done   (     72.7 sec)
Exchange-correlation Hessian                     ... done   (      4.9 sec)
ECP integral 2nd derivatives                     ... done   (      5.5 sec)
Dipole derivatives                               ... (center of mass: -0.000000,  0.000000  0.000000)done   (      0.1 sec)

Total SCF Hessian time: 0 days 0 hours 2 min 15 sec 

Writing the Hessian file to the disk             ... done


Maximum memory used throughout the entire SCFHESS-calculation: 136.7 MB

-----------------------
VIBRATIONAL FREQUENCIES
-----------------------

Scaling factor for frequencies =  1.000000000  (already applied!)

   0:         0.00 cm**-1
   1:         0.00 cm**-1
   2:         0.00 cm**-1
   3:         0.00 cm**-1
   4:         0.00 cm**-1
   5:         0.00 cm**-1
   6:        41.09 cm**-1
   7:        94.69 cm**-1
   8:        95.00 cm**-1
   9:        97.15 cm**-1
  10:        97.15 cm**-1
  11:       176.56 cm**-1
  12:       193.58 cm**-1
  13:       231.14 cm**-1
  14:       231.14 cm**-1


------------
NORMAL MODES
------------

These modes are the Cartesian displacements weighted by the diagonal matrix
M(i,i)=1/sqrt(m[i]) where m[i] is the mass of the displaced atom
Thus, these vectors are normalized but *not* orthogonal

                  0          1          2          3          4          5    
      0       0.000000   0.000000   0.000000   0.000000   0.000000   0.000000
      1       0.000000   0.000000   0.000000   0.000000   0.000000   0.000000
      2       0.000000   0.000000   0.000000   0.000000   0.000000   0.000000
      3       0.000000   0.000000   0.000000   0.000000   0.000000   0.000000
      4       0.000000   0.000000   0.000000   0.000000   0.000000   0.000000
      5       0.000000   0.000000   0.000000   0.000000   0.000000   0.000000
      6       0.000000   0.000000   0.000000   0.000000   0.000000   0.000000
      7       0.000000   0.000000   0.000000   0.000000   0.000000   0.000000
      8       0.000000   0.000000   0.000000   0.000000   0.000000   0.000000
      9       0.000000   0.000000   0.000000   0.000000   0.000000   0.000000
     10       0.000000   0.000000   0.000000   0.000000   0.000000   0.000000
     11       0.000000   0.000000   0.000000   0.000000   0.000000   0.000000
     12       0.000000   0.000000   0.000000   0.000000   0.000000   0.000000
     13       0.000000   0.000000   0.000000   0.000000   0.000000   0.000000
     14       0.000000   0.000000   0.000000   0.000000   0.000000   0.000000
                  6          7          8          9         10         11    
      0       0.000000   0.000005  -0.000000   0.125368   0.219828  -0.000001
      1      -0.000000   0.000009  -0.000000   0.219828  -0.125369   0.000001
      2      -0.000000   0.000002  -0.630034  -0.000000  -0.000000   0.000000
      3       0.000000  -0.353554  -0.000002  -0.474978   0.091406   0.353578
      4       0.000000  -0.353587  -0.000002  -0.362345  -0.320467  -0.353539
      5      -0.500000  -0.000002   0.388284   0.000000   0.000000   0.000000
      6      -0.000000   0.353515   0.000002  -0.475010   0.091405  -0.353575
      7      -0.000000   0.353558   0.000002  -0.362377  -0.320467   0.353537
      8      -0.500000  -0.000002   0.388284   0.000000   0.000000   0.000000
      9      -0.000000   0.353586   0.000002   0.320452  -0.362361   0.353531
     10       0.000000  -0.353530  -0.000002   0.091421   0.474994   0.353569
     11       0.500000  -0.000001   0.388284   0.000000   0.000000  -0.000000
     12       0.000000  -0.353560  -0.000002   0.320483  -0.362361  -0.353531
     13      -0.000000   0.353538   0.000002   0.091390   0.474994  -0.353569
     14       0.500000  -0.000001   0.388284   0.000000   0.000000  -0.000000
                 12         13         14    
      0      -0.000002  -0.351595   0.379956
      1       0.000002   0.379956   0.351595
      2      -0.000000   0.000000  -0.000000
      3       0.353572   0.425875  -0.040626
      4      -0.353532  -0.427697  -0.007491
      5       0.000000  -0.000000  -0.000000
      6      -0.353568   0.425882  -0.040626
      7       0.353528  -0.427705  -0.007491
      8       0.000000  -0.000000  -0.000000
      9      -0.353537   0.007492  -0.427701
     10      -0.353577  -0.040625  -0.425878
     11       0.000000   0.000000   0.000000
     12       0.353537   0.007490  -0.427701
     13       0.353577  -0.040627  -0.425879
     14       0.000000   0.000000   0.000000


-----------
IR SPECTRUM
-----------

 Mode   freq       eps      Int      T**2         TX        TY        TZ
       cm**-1   L/(mol*cm) km/mol    a.u.
----------------------------------------------------------------------------
  6:     41.09   0.000000    0.00  0.000000  ( 0.000000  0.000000  0.000000)
  7:     94.69   0.000000    0.00  0.000000  (-0.000001 -0.000001  0.000000)
  8:     95.00   0.000180    0.91  0.000591  ( 0.000000  0.000000 -0.024316)
  9:     97.15   0.000197    1.00  0.000633  (-0.012464 -0.021857 -0.000000)
 10:     97.15   0.000197    1.00  0.000633  (-0.021857  0.012464 -0.000000)
 11:    176.56   0.000000    0.00  0.000000  (-0.000000  0.000000  0.000000)
 12:    193.58   0.000000    0.00  0.000000  (-0.000000  0.000000 -0.000000)
 13:    231.14   0.005839   29.51  0.007884  (-0.060305  0.065170  0.000000)
 14:    231.14   0.005839   29.51  0.007884  ( 0.065170  0.060305  0.000000)

* The epsilon (eps) is given for a Dirac delta lineshape.
** The dipole moment derivative (T) already includes vibrational overlap.

The first frequency considered to be a vibration is 6
The total number of vibrations considered is 9


--------------------------
THERMOCHEMISTRY AT 298.15K
--------------------------

Temperature         ... 298.15 K
Pressure            ... 1.00 atm
Total Mass          ... 516.57 AMU

Throughout the following assumptions are being made:
  (1) The electronic state is orbitally nondegenerate
  (2) There are no thermally accessible electronically excited states
  (3) Hindered rotations indicated by low frequency modes are not
      treated as such but are treated as vibrations and this may
      cause some error
  (4) All equations used are the standard statistical mechanics
      equations for an ideal gas
  (5) All vibrations are strictly harmonic

freq.      41.09  E(vib)   ...       0.54 
freq.      94.69  E(vib)   ...       0.47 
freq.      95.00  E(vib)   ...       0.47 
freq.      97.15  E(vib)   ...       0.46 
freq.      97.15  E(vib)   ...       0.46 
freq.     176.56  E(vib)   ...       0.38 
freq.     193.58  E(vib)   ...       0.36 
freq.     231.14  E(vib)   ...       0.32 
freq.     231.14  E(vib)   ...       0.32 

------------
INNER ENERGY
------------

The inner energy is: U= E(el) + E(ZPE) + E(vib) + E(rot) + E(trans)
    E(el)   - is the total energy from the electronic structure calculation
              = E(kin-el) + E(nuc-el) + E(el-el) + E(nuc-nuc)
    E(ZPE)  - the the zero temperature vibrational energy from the frequency calculation
    E(vib)  - the the finite temperature correction to E(ZPE) due to population
              of excited vibrational states
    E(rot)  - is the rotational thermal energy
    E(trans)- is the translational thermal energy

Summary of contributions to the inner energy U:
Electronic energy                ... -10432.12427710 Eh
Zero point energy                ...      0.00286479 Eh       1.80 kcal/mol
Thermal vibrational correction   ...      0.00601944 Eh       3.78 kcal/mol
Thermal rotational correction    ...      0.00141627 Eh       0.89 kcal/mol
Thermal translational correction ...      0.00141627 Eh       0.89 kcal/mol
-----------------------------------------------------------------------
Total thermal energy                 -10432.11256033 Eh


Summary of corrections to the electronic energy:
(perhaps to be used in another calculation)
Total thermal correction                  0.00885199 Eh       5.55 kcal/mol
Non-thermal (ZPE) correction              0.00286479 Eh       1.80 kcal/mol
-----------------------------------------------------------------------
Total correction                          0.01171677 Eh       7.35 kcal/mol


--------
ENTHALPY
--------

The enthalpy is H = U + kB*T
                kB is Boltzmann's constant
Total free energy                 ... -10432.11256033 Eh 
Thermal Enthalpy correction       ...      0.00094421 Eh       0.59 kcal/mol
-----------------------------------------------------------------------
Total Enthalpy                    ... -10432.11161612 Eh


Note: Rotational entropy computed according to Herzberg 
Infrared and Raman Spectra, Chapter V,1, Van Nostrand Reinhold, 1945 
Point Group:  D4h, Symmetry Number:   8  
Rotational constants in cm-1:     0.017047     0.017047     0.008523 

Vibrational entropy computed according to the QRRHO of S. Grimme
Chem.Eur.J. 2012 18 9955


-------
ENTROPY
-------

The entropy contributions are T*S = T*(S(el)+S(vib)+S(rot)+S(trans))
     S(el)   - electronic entropy
     S(vib)  - vibrational entropy
     S(rot)  - rotational entropy
     S(trans)- translational entropy
The entropies will be listed as multiplied by the temperature to get
units of energy

Electronic entropy                ...      0.00000000 Eh      0.00 kcal/mol
Vibrational entropy               ...      0.01180071 Eh      7.41 kcal/mol
Rotational entropy                ...      0.01364145 Eh      8.56 kcal/mol
Translational entropy             ...      0.02119681 Eh     13.30 kcal/mol
-----------------------------------------------------------------------
Final entropy term                ...      0.04663897 Eh     29.27 kcal/mol

In case the symmetry of your molecule has not been determined correctly
or in case you have a reason to use a different symmetry number we print 
out the resulting rotational entropy values for sn=1,12 :
 --------------------------------------------------------
|  sn= 1 | S(rot)=       0.01560482 Eh      9.79 kcal/mol|
|  sn= 2 | S(rot)=       0.01495037 Eh      9.38 kcal/mol|
|  sn= 3 | S(rot)=       0.01456753 Eh      9.14 kcal/mol|
|  sn= 4 | S(rot)=       0.01429591 Eh      8.97 kcal/mol|
|  sn= 5 | S(rot)=       0.01408522 Eh      8.84 kcal/mol|
|  sn= 6 | S(rot)=       0.01391308 Eh      8.73 kcal/mol|
|  sn= 7 | S(rot)=       0.01376753 Eh      8.64 kcal/mol|
|  sn= 8 | S(rot)=       0.01364145 Eh      8.56 kcal/mol|
|  sn= 9 | S(rot)=       0.01353025 Eh      8.49 kcal/mol|
|  sn=10 | S(rot)=       0.01343077 Eh      8.43 kcal/mol|
|  sn=11 | S(rot)=       0.01334078 Eh      8.37 kcal/mol|
|  sn=12 | S(rot)=       0.01325862 Eh      8.32 kcal/mol|
 --------------------------------------------------------


-------------------
GIBBS FREE ENERGY
-------------------

The Gibbs free energy is G = H - T*S

Total enthalpy                    ... -10432.11161612 Eh 
Total entropy correction          ...     -0.04663897 Eh    -29.27 kcal/mol
-----------------------------------------------------------------------
Final Gibbs free energy         ... -10432.15825509 Eh

For completeness - the Gibbs free energy minus the electronic energy
G-E(el)                           ...     -0.03397799 Eh    -21.32 kcal/mol


Timings for individual modules:

Sum of individual times         ...      208.343 sec (=   3.472 min)
GTO integral calculation        ...        3.063 sec (=   0.051 min)   1.5 %
SCF iterations                  ...       53.973 sec (=   0.900 min)  25.9 %
SCF Gradient evaluation         ...       14.800 sec (=   0.247 min)   7.1 %
Geometry relaxation             ...        0.024 sec (=   0.000 min)   0.0 %
Analytical frequency calculation...      136.484 sec (=   2.275 min)  65.5 %
                             ****ORCA TERMINATED NORMALLY****
TOTAL RUN TIME: 0 days 0 hours 3 minutes 29 seconds 593 msec
