
                                 *****************
                                 * O   R   C   A *
                                 *****************

                                            #,                                       
                                            ###                                      
                                            ####                                     
                                            #####                                    
                                            ######                                   
                                           ########,                                 
                                     ,,################,,,,,                         
                               ,,#################################,,                 
                          ,,##########################################,,             
                       ,#########################################, ''#####,          
                    ,#############################################,,   '####,        
                  ,##################################################,,,,####,       
                ,###########''''           ''''###############################       
              ,#####''   ,,,,##########,,,,          '''####'''          '####       
            ,##' ,,,,###########################,,,                        '##       
           ' ,,###''''                  '''############,,,                           
         ,,##''                                '''############,,,,        ,,,,,,###''
      ,#''                                            '''#######################'''  
     '                                                          ''''####''''         
             ,#######,   #######,   ,#######,      ##                                
            ,#'     '#,  ##    ##  ,#'     '#,    #''#        ######   ,####,        
            ##       ##  ##   ,#'  ##            #'  '#       #        #'  '#        
            ##       ##  #######   ##           ,######,      #####,   #    #        
            '#,     ,#'  ##    ##  '#,     ,#' ,#      #,         ##   #,  ,#        
             '#######'   ##     ##  '#######'  #'      '#     #####' # '####'        



                  #######################################################
                  #                        -***-                        #
                  #          Department of theory and spectroscopy      #
                  #    Directorship and core code : Frank Neese         #
                  #        Max Planck Institute fuer Kohlenforschung    #
                  #                Kaiser Wilhelm Platz 1               #
                  #                 D-45470 Muelheim/Ruhr               #
                  #                      Germany                        #
                  #                                                     #
                  #                  All rights reserved                #
                  #                        -***-                        #
                  #######################################################


                         Program Version 5.0.4 -  RELEASE  -


 With contributions from (in alphabetic order):
   Daniel Aravena         : Magnetic Suceptibility
   Michael Atanasov       : Ab Initio Ligand Field Theory (pilot matlab implementation)
   Alexander A. Auer      : GIAO ZORA, VPT2 properties, NMR spectrum
   Ute Becker             : Parallelization
   Giovanni Bistoni       : ED, misc. LED, open-shell LED, HFLD
   Martin Brehm           : Molecular dynamics
   Dmytro Bykov           : SCF Hessian
   Vijay G. Chilkuri      : MRCI spin determinant printing, contributions to CSF-ICE
   Dipayan Datta          : RHF DLPNO-CCSD density
   Achintya Kumar Dutta   : EOM-CC, STEOM-CC
   Dmitry Ganyushin       : Spin-Orbit,Spin-Spin,Magnetic field MRCI
   Miquel Garcia          : C-PCM and meta-GGA Hessian, CC/C-PCM, Gaussian charge scheme
   Yang Guo               : DLPNO-NEVPT2, F12-NEVPT2, CIM, IAO-localization
   Andreas Hansen         : Spin unrestricted coupled pair/coupled cluster methods
   Benjamin Helmich-Paris : MC-RPA, TRAH-SCF, COSX integrals
   Lee Huntington         : MR-EOM, pCC
   Robert Izsak           : Overlap fitted RIJCOSX, COSX-SCS-MP3, EOM
   Marcus Kettner         : VPT2
   Christian Kollmar      : KDIIS, OOCD, Brueckner-CCSD(T), CCSD density, CASPT2, CASPT2-K
   Simone Kossmann        : Meta GGA functionals, TD-DFT gradient, OOMP2, MP2 Hessian
   Martin Krupicka        : Initial AUTO-CI
   Lucas Lang             : DCDCAS
   Marvin Lechner         : AUTO-CI (C++ implementation), FIC-MRCC
   Dagmar Lenk            : GEPOL surface, SMD
   Dimitrios Liakos       : Extrapolation schemes; Compound Job, initial MDCI parallelization
   Dimitrios Manganas     : Further ROCIS development; embedding schemes
   Dimitrios Pantazis     : SARC Basis sets
   Anastasios Papadopoulos: AUTO-CI, single reference methods and gradients
   Taras Petrenko         : DFT Hessian,TD-DFT gradient, ASA, ECA, R-Raman, ABS, FL, XAS/XES, NRVS
   Peter Pinski           : DLPNO-MP2, DLPNO-MP2 Gradient
   Christoph Reimann      : Effective Core Potentials
   Marius Retegan         : Local ZFS, SOC
   Christoph Riplinger    : Optimizer, TS searches, QM/MM, DLPNO-CCSD(T), (RO)-DLPNO pert. Triples
   Tobias Risthaus        : Range-separated hybrids, TD-DFT gradient, RPA, STAB
   Michael Roemelt        : Original ROCIS implementation
   Masaaki Saitow         : Open-shell DLPNO-CCSD energy and density
   Barbara Sandhoefer     : DKH picture change effects
   Avijit Sen             : IP-ROCIS
   Kantharuban Sivalingam : CASSCF convergence, NEVPT2, FIC-MRCI
   Bernardo de Souza      : ESD, SOC TD-DFT
   Georgi Stoychev        : AutoAux, RI-MP2 NMR, DLPNO-MP2 response
   Willem Van den Heuvel  : Paramagnetic NMR
   Boris Wezisla          : Elementary symmetry handling
   Frank Wennmohs         : Technical directorship


 We gratefully acknowledge several colleagues who have allowed us to
 interface, adapt or use parts of their codes:
   Stefan Grimme, W. Hujo, H. Kruse, P. Pracht,  : VdW corrections, initial TS optimization,
                  C. Bannwarth, S. Ehlert          DFT functionals, gCP, sTDA/sTD-DF
   Ed Valeev, F. Pavosevic, A. Kumar             : LibInt (2-el integral package), F12 methods
   Garnet Chan, S. Sharma, J. Yang, R. Olivares  : DMRG
   Ulf Ekstrom                                   : XCFun DFT Library
   Mihaly Kallay                                 : mrcc  (arbitrary order and MRCC methods)
   Jiri Pittner, Ondrej Demel                    : Mk-CCSD
   Frank Weinhold                                : gennbo (NPA and NBO analysis)
   Christopher J. Cramer and Donald G. Truhlar   : smd solvation model
   Lars Goerigk                                  : TD-DFT with DH, B97 family of functionals
   V. Asgeirsson, H. Jonsson                     : NEB implementation
   FAccTs GmbH                                   : IRC, NEB, NEB-TS, DLPNO-Multilevel, CI-OPT
                                                   MM, QMMM, 2- and 3-layer-ONIOM, Crystal-QMMM,
                                                   LR-CPCM, SF, NACMEs, symmetry and pop. for TD-DFT,
                                                   nearIR, NL-DFT gradient (VV10), updates on ESD,
                                                   ML-optimized integration grids
   S Lehtola, MJT Oliveira, MAL Marques          : LibXC Library
   Liviu Ungur et al                             : ANISO software


 Your calculation uses the libint2 library for the computation of 2-el integrals
 For citations please refer to: http://libint.valeyev.net

 Your ORCA version has been built with support for libXC version: 5.1.0
 For citations please refer to: https://tddft.org/programs/libxc/

 This ORCA versions uses:
   CBLAS   interface :  Fast vector & matrix operations
   LAPACKE interface :  Fast linear algebra routines
   SCALAPACK package :  Parallel linear algebra routines
   Shared memory     :  Shared parallel matrices
   BLAS/LAPACK       :  OpenBLAS 0.3.15  USE64BITINT DYNAMIC_ARCH NO_AFFINITY Haswell SINGLE_THREADED
        Core in use  :  Haswell
   Copyright (c) 2011-2014, The OpenBLAS Project


================================================================================

----- Orbital basis set information -----
Your calculation utilizes the basis: def2-TZVP
   F. Weigend and R. Ahlrichs, Phys. Chem. Chem. Phys. 7, 3297 (2005).

----- AuxJ basis set information -----
Your calculation utilizes the auxiliary basis: def2/J
   F. Weigend, Phys. Chem. Chem. Phys. 8, 1057 (2006).

================================================================================
                                        WARNINGS
                       Please study these warnings very carefully!
================================================================================


WARNING: your system is open-shell and RHF/RKS was chosen
  ===> : WILL SWITCH to UHF/UKS


WARNING: Geometry Optimization
  ===> : Switching off AutoStart
         For restart on a previous wavefunction, please use MOREAD

INFO   : the flag for use of the SHARK integral package has been found!

================================================================================
                                       INPUT FILE
================================================================================
NAME = NiCl4.inp
|  1> # avogadro generated ORCA file
|  2> # Geometry Optimization | B3LYP/def2-TZVP
|  3> # [NiCl4]2-
|  4> # Ni +2
|  5> #
|  6> ! Opt B3LYP def2-TZVP FREQ
|  7> 
|  8> %maxcore 4096
|  9> 
| 10> %pal
| 11>    nprocs 4
| 12> end
| 13> 
| 14> * xyz -2 3
| 15>    Ni     0.000000   -0.000000    0.000000
| 16>    Cl    -0.000000   -1.989000   -1.406400
| 17>    Cl     0.000000    1.989000   -1.406400
| 18>    Cl    -1.989000   -0.000000    1.406400
| 19>    Cl     1.989000   -0.000000    1.406400
| 20> *
| 21> 
| 22> 
| 23> 
| 24>                          ****END OF INPUT****
================================================================================

                       *****************************
                       * Geometry Optimization Run *
                       *****************************

Geometry optimization settings:
Update method            Update   .... BFGS
Choice of coordinates    CoordSys .... Z-matrix Internals
Initial Hessian          InHess   .... Almoef's Model

Convergence Tolerances:
Energy Change            TolE     ....  5.0000e-06 Eh
Max. Gradient            TolMAXG  ....  3.0000e-04 Eh/bohr
RMS Gradient             TolRMSG  ....  1.0000e-04 Eh/bohr
Max. Displacement        TolMAXD  ....  4.0000e-03 bohr
RMS Displacement         TolRMSD  ....  2.0000e-03 bohr
Strict Convergence                ....  False
------------------------------------------------------------------------------
                        ORCA OPTIMIZATION COORDINATE SETUP
------------------------------------------------------------------------------

The optimization will be done in new redundant internal coordinates
Making redundant internal coordinates   ...  (new redundants) done
Evaluating the initial hessian          ...  (Almloef) done
Evaluating the coordinates              ...  done
Calculating the B-matrix                .... done
Calculating the G-matrix                .... done
Diagonalizing the G-matrix              .... done
The first mode is                       ....    1
The number of degrees of freedom        ....    9

    -----------------------------------------------------------------
                    Redundant Internal Coordinates


    -----------------------------------------------------------------
         Definition                    Initial Value    Approx d2E/dq
    -----------------------------------------------------------------
      1. B(Cl  1,Ni  0)                  2.4360         0.304115   
      2. B(Cl  2,Ni  0)                  2.4360         0.304115   
      3. B(Cl  3,Ni  0)                  2.4360         0.304115   
      4. B(Cl  4,Ni  0)                  2.4360         0.304115   
      5. A(Cl  1,Ni  0,Cl  3)          109.4705         0.450578   
      6. A(Cl  2,Ni  0,Cl  3)          109.4705         0.450578   
      7. A(Cl  1,Ni  0,Cl  4)          109.4705         0.450578   
      8. A(Cl  2,Ni  0,Cl  4)          109.4705         0.450578   
      9. A(Cl  3,Ni  0,Cl  4)          109.4726         0.450578   
     10. A(Cl  1,Ni  0,Cl  2)          109.4726         0.450578   
    -----------------------------------------------------------------

Number of atoms                         .... 5
Number of degrees of freedom            .... 10

         *************************************************************
         *                GEOMETRY OPTIMIZATION CYCLE   1            *
         *************************************************************
---------------------------------
CARTESIAN COORDINATES (ANGSTROEM)
---------------------------------
  Ni     0.000000   -0.000000    0.000000
  Cl    -0.000000   -1.989000   -1.406400
  Cl     0.000000    1.989000   -1.406400
  Cl    -1.989000   -0.000000    1.406400
  Cl     1.989000   -0.000000    1.406400

----------------------------
CARTESIAN COORDINATES (A.U.)
----------------------------
  NO LB      ZA    FRAG     MASS         X           Y           Z
   0 Ni   28.0000    0    58.700    0.000000   -0.000000    0.000000
   1 Cl   17.0000    0    35.453   -0.000000   -3.758665   -2.657711
   2 Cl   17.0000    0    35.453    0.000000    3.758665   -2.657711
   3 Cl   17.0000    0    35.453   -3.758665   -0.000000    2.657711
   4 Cl   17.0000    0    35.453    3.758665   -0.000000    2.657711

--------------------------------
INTERNAL COORDINATES (ANGSTROEM)
--------------------------------
 Ni     0   0   0     0.000000000000     0.00000000     0.00000000
 Cl     1   0   0     2.435997118225     0.00000000     0.00000000
 Cl     1   2   0     2.435997118225   109.47257984     0.00000000
 Cl     1   2   3     2.435997118225   109.47054104   119.99958383
 Cl     1   2   3     2.435997118225   109.47054104   240.00041617

---------------------------
INTERNAL COORDINATES (A.U.)
---------------------------
 Ni     0   0   0     0.000000000000     0.00000000     0.00000000
 Cl     1   0   0     4.603367416466     0.00000000     0.00000000
 Cl     1   2   0     4.603367416466   109.47257984     0.00000000
 Cl     1   2   3     4.603367416466   109.47054104   119.99958383
 Cl     1   2   3     4.603367416466   109.47054104   240.00041617

---------------------
BASIS SET INFORMATION
---------------------
There are 2 groups of distinct atoms

 Group   1 Type Ni  : 17s11p7d1f contracted to 6s4p4d1f pattern {842111/6311/4111/1}
 Group   2 Type Cl  : 14s9p3d1f contracted to 5s5p2d1f pattern {73211/51111/21/1}

Atom   0Ni   basis set group =>   1
Atom   1Cl   basis set group =>   2
Atom   2Cl   basis set group =>   2
Atom   3Cl   basis set group =>   2
Atom   4Cl   basis set group =>   2
---------------------------------
AUXILIARY/J BASIS SET INFORMATION
---------------------------------
There are 2 groups of distinct atoms

 Group   1 Type Ni  : 19s5p5d3f3g contracted to 8s5p5d2f3g pattern {121111111/11111/11111/21/111}
 Group   2 Type Cl  : 14s5p5d2f1g contracted to 8s4p3d1f1g pattern {71111111/2111/311/2/1}

Atom   0Ni   basis set group =>   1
Atom   1Cl   basis set group =>   2
Atom   2Cl   basis set group =>   2
Atom   3Cl   basis set group =>   2
Atom   4Cl   basis set group =>   2


           ************************************************************
           *        Program running with 4 parallel MPI-processes     *
           *              working on a common directory               *
           ************************************************************
------------------------------------------------------------------------------
                           ORCA GTO INTEGRAL CALCULATION
                           -- RI-GTO INTEGRALS CHOSEN --
------------------------------------------------------------------------------
------------------------------------------------------------------------------
                   ___                                                        
                  /   \      - P O W E R E D   B Y -                         
                 /     \                                                     
                 |  |  |   _    _      __       _____    __    __             
                 |  |  |  | |  | |    /  \     |  _  \  |  |  /  |          
                  \  \/   | |  | |   /    \    | | | |  |  | /  /          
                 / \  \   | |__| |  /  /\  \   | |_| |  |  |/  /          
                |  |  |   |  __  | /  /__\  \  |    /   |      \           
                |  |  |   | |  | | |   __   |  |    \   |  |\   \          
                \     /   | |  | | |  |  |  |  | |\  \  |  | \   \       
                 \___/    |_|  |_| |__|  |__|  |_| \__\ |__|  \__/        
                                                                              
                      - O R C A' S   B I G   F R I E N D -                    
                                      &                                       
                       - I N T E G R A L  F E E D E R -                       
                                                                              
 v1 FN, 2020, v2 2021                                                         
------------------------------------------------------------------------------


Reading SHARK input file NiCl4.SHARKINP.tmp ... ok
----------------------
SHARK INTEGRAL PACKAGE
----------------------

Number of atoms                             ...      5
Number of basis functions                   ...    193
Number of shells                            ...     67
Maximum angular momentum                    ...      3
Integral batch strategy                     ... SHARK/LIBINT Hybrid
RI-J (if used) integral strategy            ... SPLIT-RIJ (Revised 2003 algorithm where possible)
Printlevel                                  ...      1
Contraction scheme used                     ... SEGMENTED contraction
Coulomb Range Separation                    ... NOT USED
Exchange Range Separation                   ... NOT USED
Finite Nucleus Model                        ... NOT USED
Auxiliary Coulomb fitting basis             ... AVAILABLE
   # of basis functions in Aux-J            ...    293
   # of shells in Aux-J                     ...     91
   Maximum angular momentum in Aux-J        ...      4
Auxiliary J/K fitting basis                 ... NOT available
Auxiliary Correlation fitting basis         ... NOT available
Auxiliary 'external' fitting basis          ... NOT available
Integral threshold                          ...     2.500000e-11
Primitive cut-off                           ...     2.500000e-12
Primitive pair pre-selection threshold      ...     2.500000e-12

Calculating pre-screening integrals         ... done (  0.0 sec) Dimension = 67
Organizing shell pair data                  ... done (  0.0 sec)
Shell pair information
Total number of shell pairs                 ...      2278
Shell pairs after pre-screening             ...      1832
Total number of primitive shell pairs       ...     10643
Primitive shell pairs kept                  ...      5581
          la=0 lb=0:    241 shell pairs
          la=1 lb=0:    468 shell pairs
          la=1 lb=1:    240 shell pairs
          la=2 lb=0:    268 shell pairs
          la=2 lb=1:    260 shell pairs
          la=2 lb=2:     78 shell pairs
          la=3 lb=0:     98 shell pairs
          la=3 lb=1:    104 shell pairs
          la=3 lb=2:     60 shell pairs
          la=3 lb=3:     15 shell pairs

Calculating one electron integrals          ... done (  0.0 sec)
Calculating RI/J V-Matrix + Cholesky decomp.... done (  0.0 sec)
Calculating Nuclear repulsion               ... done (  0.0 sec) ENN=    644.279184177987 Eh

SHARK setup successfully completed in   0.1 seconds

Maximum memory used throughout the entire GTOINT-calculation: 19.3 MB


           ************************************************************
           *        Program running with 4 parallel MPI-processes     *
           *              working on a common directory               *
           ************************************************************
-------------------------------------------------------------------------------
                                 ORCA SCF
-------------------------------------------------------------------------------

------------
SCF SETTINGS
------------
Hamiltonian:
 Density Functional     Method          .... DFT(GTOs)
 Exchange Functional    Exchange        .... B88
   X-Alpha parameter    XAlpha          ....  0.666667
   Becke's b parameter  XBeta           ....  0.004200
 Correlation Functional Correlation     .... LYP
 LDA part of GGA corr.  LDAOpt          .... VWN-5
 Gradients option       PostSCFGGA      .... off
 Hybrid DFT is turned on
   Fraction HF Exchange ScalHFX         ....  0.200000
   Scaling of DF-GGA-X  ScalDFX         ....  0.720000
   Scaling of DF-GGA-C  ScalDFC         ....  0.810000
   Scaling of DF-LDA-C  ScalLDAC        ....  1.000000
   Perturbative correction              ....  0.000000
   Density functional embedding theory  .... OFF
   NL short-range parameter             ....  4.800000
 RI-approximation to the Coulomb term is turned on
   Number of AuxJ basis functions       .... 293
   RIJ-COSX (HFX calculated with COS-X)).... on


General Settings:
 Integral files         IntName         .... NiCl4
 Hartree-Fock type      HFTyp           .... UHF
 Total Charge           Charge          ....   -2
 Multiplicity           Mult            ....    3
 Number of Electrons    NEL             ....   98
 Basis Dimension        Dim             ....  193
 Nuclear Repulsion      ENuc            ....    644.2791841780 Eh

Convergence Acceleration:
 DIIS                   CNVDIIS         .... on
   Start iteration      DIISMaxIt       ....    12
   Startup error        DIISStart       ....  0.200000
   # of expansion vecs  DIISMaxEq       ....     5
   Bias factor          DIISBfac        ....   1.050
   Max. coefficient     DIISMaxC        ....  10.000
 Trust-Rad. Augm. Hess. CNVTRAH         .... auto
   Auto Start mean grad. ratio tolernc. ....  1.125000
   Auto Start start iteration           ....    20
   Auto Start num. interpolation iter.  ....    10
   Max. Number of Micro iterations      ....    16
   Max. Number of Macro iterations      .... Maxiter - #DIIS iter
   Number of Davidson start vectors     ....     2
   Converg. threshold I  (grad. norm)   ....   1.000e-05
   Converg. threshold II (energy diff.) ....   1.000e-08
   Grad. Scal. Fac. for Micro threshold ....   0.100
   Minimum threshold for Micro iter.    ....   0.010
   NR start threshold (gradient norm)   ....   0.001
   Initial trust radius                 ....   0.400
   Minimum AH scaling param. (alpha)    ....   1.000
   Maximum AH scaling param. (alpha)    .... 1000.000
   Orbital update algorithm             .... Taylor
   White noise on init. David. guess    .... on
   Maximum white noise                  ....   0.010
   Quad. conv. algorithm                .... NR
 SOSCF                  CNVSOSCF        .... off
 Level Shifting         CNVShift        .... on
   Level shift para.    LevelShift      ....    0.2500
   Turn off err/grad.   ShiftErr        ....    0.0010
 Zerner damping         CNVZerner       .... off
 Static damping         CNVDamp         .... on
   Fraction old density DampFac         ....    0.7000
   Max. Damping (<1)    DampMax         ....    0.9800
   Min. Damping (>=0)   DampMin         ....    0.0000
   Turn off err/grad.   DampErr         ....    0.1000
 Fernandez-Rico         CNVRico         .... off

SCF Procedure:
 Maximum # iterations   MaxIter         ....   125
 SCF integral mode      SCFMode         .... Direct
   Integral package                     .... SHARK and LIBINT hybrid scheme
 Reset frequency        DirectResetFreq ....    20
 Integral Threshold     Thresh          ....  2.500e-11 Eh
 Primitive CutOff       TCut            ....  2.500e-12 Eh

Convergence Tolerance:
 Convergence Check Mode ConvCheckMode   .... Total+1el-Energy
 Convergence forced     ConvForced      .... 0
 Energy Change          TolE            ....  1.000e-08 Eh
 1-El. energy change                    ....  1.000e-05 Eh
 DIIS Error             TolErr          ....  5.000e-07


Diagonalization of the overlap matrix:
Smallest eigenvalue                        ... 2.168e-02
Time for diagonalization                   ...    0.003 sec
Threshold for overlap eigenvalues          ... 1.000e-08
Number of eigenvalues below threshold      ... 0
Time for construction of square roots      ...    0.001 sec
Total time needed                          ...    0.005 sec

Time for model grid setup =    0.037 sec

------------------------------
INITIAL GUESS: MODEL POTENTIAL
------------------------------
Loading Hartree-Fock densities                     ... done
Calculating cut-offs                               ... done
Initializing the effective Hamiltonian             ... done
Setting up the integral package (SHARK)            ... done
Starting the Coulomb interaction                   ... done (   0.0 sec)
Reading the grid                                   ... done
Mapping shells                                     ... done
Starting the XC term evaluation                    ... done (   0.0 sec)
  promolecular density results
     # of electrons  =     95.999252424
     EX              =   -171.854479591
     EC              =     -4.139156679
     EX+EC           =   -175.993636270
Transforming the Hamiltonian                       ... done (   0.0 sec)
Diagonalizing the Hamiltonian                      ... done (   0.0 sec)
Back transforming the eigenvectors                 ... done (   0.0 sec)
Now organizing SCF variables                       ... done
                      ------------------
                      INITIAL GUESS DONE (   0.1 sec)
                      ------------------
-------------------
DFT GRID GENERATION
-------------------

General Integration Accuracy     IntAcc      ... 4.388
Radial Grid Type                 RadialGrid  ... OptM3 with GC (2021)
Angular Grid (max. ang.)         AngularGrid ... 4 (Lebedev-302)
Angular grid pruning method      GridPruning ... 4 (adaptive)
Weight generation scheme         WeightScheme... Becke
Basis function cutoff            BFCut       ... 1.0000e-11
Integration weight cutoff        WCut        ... 1.0000e-14
Angular grids for H and He will be reduced by one unit
Partially contracted basis set               ... off
Rotationally invariant grid construction     ... off

Total number of grid points                  ...    40740
Total number of batches                      ...      638
Average number of points per batch           ...       63
Average number of grid points per atom       ...     8148
Time for grid setup =    0.209 sec

--------------------
COSX GRID GENERATION
--------------------

GRIDX 1
-------
General Integration Accuracy     IntAcc      ... 3.816
Radial Grid Type                 RadialGrid  ... OptM3 with GC (2021)
Angular Grid (max. ang.)         AngularGrid ... 1 (Lebedev-50)
Angular grid pruning method      GridPruning ... 4 (adaptive)
Weight generation scheme         WeightScheme... Becke
Basis function cutoff            BFCut       ... 1.0000e-11
Integration weight cutoff        WCut        ... 1.0000e-14
Angular grids for H and He will be reduced by one unit
Partially contracted basis set               ... on
Rotationally invariant grid construction     ... off

Total number of grid points                  ...     4604
Total number of batches                      ...       75
Average number of points per batch           ...       61
Average number of grid points per atom       ...      921
UseSFitting                                  ... on

GRIDX 2
-------
General Integration Accuracy     IntAcc      ... 4.020
Radial Grid Type                 RadialGrid  ... OptM3 with GC (2021)
Angular Grid (max. ang.)         AngularGrid ... 2 (Lebedev-110)
Angular grid pruning method      GridPruning ... 4 (adaptive)
Weight generation scheme         WeightScheme... Becke
Basis function cutoff            BFCut       ... 1.0000e-11
Integration weight cutoff        WCut        ... 1.0000e-14
Angular grids for H and He will be reduced by one unit
Partially contracted basis set               ... on
Rotationally invariant grid construction     ... off

Total number of grid points                  ...    10600
Total number of batches                      ...      169
Average number of points per batch           ...       62
Average number of grid points per atom       ...     2120
UseSFitting                                  ... on

GRIDX 3
-------
General Integration Accuracy     IntAcc      ... 4.338
Radial Grid Type                 RadialGrid  ... OptM3 with GC (2021)
Angular Grid (max. ang.)         AngularGrid ... 3 (Lebedev-194)
Angular grid pruning method      GridPruning ... 4 (adaptive)
Weight generation scheme         WeightScheme... Becke
Basis function cutoff            BFCut       ... 1.0000e-11
Integration weight cutoff        WCut        ... 1.0000e-14
Angular grids for H and He will be reduced by one unit
Partially contracted basis set               ... on
Rotationally invariant grid construction     ... off

Total number of grid points                  ...    26238
Total number of batches                      ...      412
Average number of points per batch           ...       63
Average number of grid points per atom       ...     5248
UseSFitting                                  ... on

Time for X-Grid setup             =    0.147 sec

--------------
SCF ITERATIONS
--------------
ITER       Energy         Delta-E        Max-DP      RMS-DP      [F,P]     Damp
               ***  Starting incremental Fock matrix formation  ***
  0  -3349.0053997165   0.000000000000 0.03460770  0.00076807  0.0570862 0.7000
  1  -3349.0576457323  -0.052246015808 0.02262458  0.00060215  0.0341373 0.7000
                               ***Turning on DIIS***
  2  -3349.0839208141  -0.026275081790 0.03864100  0.00116025  0.0319828 0.0000
  3  -3349.1302643572  -0.046343543104 0.02010837  0.00044680  0.0150595 0.0000
  4  -3349.1397162361  -0.009451878865 0.00927947  0.00013696  0.0080513 0.0000
  5  -3349.1411696822  -0.001453446125 0.00939993  0.00010122  0.0081295 0.0000
  6  -3349.1421138349  -0.000944152770 0.00774900  0.00007026  0.0069080 0.0000
  7  -3349.1428463648  -0.000732529896 0.00989812  0.00008100  0.0067091 0.0000
  8  -3349.1435503711  -0.000704006246 0.00958498  0.00008224  0.0057026 0.0000
  9  -3349.1441733913  -0.000623020236 0.00882521  0.00007877  0.0048760 0.0000
 10  -3349.1447241942  -0.000550802855 0.00999471  0.00009523  0.0043303 0.0000
 11  -3349.1452935164  -0.000569322224 0.00536015  0.00006090  0.0037752 0.0000
 12  -3349.1456157690  -0.000322252633 0.00597045  0.00006544  0.0028958 0.0000
 13  -3349.1459041142  -0.000288345146 0.00785461  0.00009357  0.0028309 0.0000
 14  -3349.1462388891  -0.000334774930 0.00395893  0.00004735  0.0020593 0.0000
 15  -3349.1463848122  -0.000145923111 0.00603694  0.00006390  0.0015539 0.0000
 16  -3349.1465217536  -0.000136941409 0.00298659  0.00003029  0.0013676 0.0000
 17  -3349.1465806858  -0.000058932174 0.00360504  0.00003239  0.0010787 0.0000
 18  -3349.1466264538  -0.000045767983 0.00703044  0.00006544  0.0009391 0.0000
               *** Restarting incremental Fock matrix formation ***
                                   *** Resetting DIIS ***
 19  -3349.1466598557  -0.000033401905 0.00158705  0.00001397  0.0006428 0.0000
 20  -3349.1466707728  -0.000010917108 0.00139746  0.00001168  0.0006220 0.0000
 21  -3349.1466792918  -0.000008519004 0.00284997  0.00002358  0.0005627 0.0000
 22  -3349.1466948298  -0.000015537968 0.00343802  0.00002926  0.0004443 0.0000
 23  -3349.1467111822  -0.000016352382 0.00128219  0.00001204  0.0004062 0.0000
 24  -3349.1467171658  -0.000005983686 0.00157524  0.00001479  0.0003865 0.0000
 25  -3349.1467241499  -0.000006984090 0.00226298  0.00002210  0.0003862 0.0000
 26  -3349.1467333997  -0.000009249741 0.00325873  0.00003027  0.0003503 0.0000

 WARNING: the maximum gradient error descreased on average only by a factor   1.1
          during the last 20 iterations

                      *** Initiating the TRAH-SCF procedure ***


TRAH GRIDX
----------

General Integration Accuracy     IntAcc      ... 3.067
Radial Grid Type                 RadialGrid  ... OptM3 with GC (2021)
Angular Grid (max. ang.)         AngularGrid ... 1 (Lebedev-50)
Angular grid pruning method      GridPruning ... 4 (adaptive)
Weight generation scheme         WeightScheme... Becke
Basis function cutoff            BFCut       ... 1.0000e-11
Integration weight cutoff        WCut        ... 1.0000e-14
Angular grids for H and He will be reduced by one unit
Partially contracted basis set               ... on
Rotationally invariant grid construction     ... off

Total number of grid points                  ...     2958
Total number of batches                      ...       49
Average number of points per batch           ...       60
Average number of grid points per atom       ...      592


TRAH GRID
---------

General Integration Accuracy     IntAcc      ... 3.467
Radial Grid Type                 RadialGrid  ... OptM3 with GC (2021)
Angular Grid (max. ang.)         AngularGrid ... 1 (Lebedev-50)
Angular grid pruning method      GridPruning ... 4 (adaptive)
Weight generation scheme         WeightScheme... Becke
Basis function cutoff            BFCut       ... 1.0000e-11
Integration weight cutoff        WCut        ... 1.0000e-14
Angular grids for H and He will be reduced by one unit
Partially contracted basis set               ... off
Rotationally invariant grid construction     ... off

Total number of grid points                  ...     8588
Total number of batches                      ...      137
Average number of points per batch           ...       62
Average number of grid points per atom       ...     1718

 --------------------------------------------------------------------------------------------
   Iter.        energy            ||Error||_2        Shift      TRadius  Mac/Mic        Rej.
 --------------------------------------------------------------------------------------------
    0      -3349.146743866914     5.199207e-04                     0.400 (TRAH MAcro)   No
    0     dE    -9.254807e-08     1.066930e-03    -9.2549e-08      0.000 (TRAH MIcro)
    0     dE    -6.986741e-06     2.580319e-03    -6.9846e-06      0.017 (TRAH MIcro)
    0     dE    -1.034141e-05     1.509815e-03    -1.0334e-05      0.026 (TRAH MIcro)
    0     dE    -1.199326e-05     1.098628e-03    -1.1982e-05      0.030 (TRAH MIcro)
    0     dE    -1.658867e-05     2.046987e-03    -1.6556e-05      0.045 (TRAH MIcro)
    0     dE    -1.749494e-05     6.705993e-04    -1.7455e-05      0.048 (TRAH MIcro)
    0     dE    -1.771873e-05     4.401668e-04    -1.7677e-05      0.049 (TRAH MIcro)
    0     dE    -1.775298e-05     1.257384e-04    -1.7711e-05      0.049 (TRAH MIcro)
    0     dE    -1.776293e-05     7.325147e-05    -1.7721e-05      0.049 (TRAH MIcro)
    0     dE    -1.776563e-05     4.653716e-05    -1.7723e-05      0.049 (TRAH MIcro)
    0     dE    -1.776629e-05     1.269765e-05    -1.7724e-05      0.049 (TRAH MIcro)
    0     dE    -1.776634e-05     4.997894e-06    -1.7724e-05      0.049 (TRAH MIcro)
    0     dE    -1.776634e-05     1.930962e-06    -1.7724e-05      0.049 (TRAH MIcro)
    1      -3349.146758856809     2.409168e-04                           (NR   MAcro)
    1     dE    -4.433895e-08     2.924979e-04                           (NR   MIcro)
    1     dE    -1.256598e-07     4.517558e-04                           (NR   MIcro)
    1     dE    -3.045919e-07     2.817161e-04                           (NR   MIcro)
    1     dE    -3.560674e-07     2.259241e-04                           (NR   MIcro)
    1     dE    -4.521642e-07     3.087197e-04                           (NR   MIcro)
    1     dE    -4.979240e-07     1.299132e-04                           (NR   MIcro)
    1     dE    -5.070113e-07     5.463964e-05                           (NR   MIcro)
    1     dE    -5.081624e-07     1.936883e-05                           (NR   MIcro)
    1     dE    -5.084574e-07     1.512775e-05                           (NR   MIcro)
    1     dE    -5.086244e-07     1.161324e-05                           (NR   MIcro)
    1     dE    -5.086835e-07     3.706610e-06                           (NR   MIcro)
    1     dE    -5.086901e-07     1.629841e-06                           (NR   MIcro)
    1     dE    -5.086910e-07     2.611345e-07                           (NR   MIcro)
    2      -3349.146759275162     2.405587e-05                           (NR   MAcro)
    2     dE    -4.662409e-09     9.041664e-05                           (NR   MIcro)
    2     dE    -7.194124e-09     9.574766e-05                           (NR   MIcro)
    2     dE    -1.259807e-08     3.656958e-05                           (NR   MIcro)
    2     dE    -1.384075e-08     3.537475e-05                           (NR   MIcro)
    2     dE    -1.590551e-08     3.409908e-05                           (NR   MIcro)
    2     dE    -1.638370e-08     8.763858e-06                           (NR   MIcro)
    2     dE    -1.642550e-08     3.666886e-06                           (NR   MIcro)
    2     dE    -1.643015e-08     9.451240e-07                           (NR   MIcro)
    3      -3349.146759288535     4.294635e-06                           (NR   MAcro)
    3     dE    -1.631477e-10     1.604117e-05                           (NR   MIcro)
    3     dE    -3.455882e-10     1.279595e-05                           (NR   MIcro)
    3     dE    -4.230738e-10     9.804145e-06                           (NR   MIcro)
    3     dE    -4.689983e-10     6.241726e-06                           (NR   MIcro)
    3     dE    -5.332791e-10     8.775480e-06                           (NR   MIcro)
    3     dE    -5.607991e-10     3.347896e-06                           (NR   MIcro)
    3     dE    -5.647806e-10     1.129317e-06                           (NR   MIcro)
    3     dE    -5.652037e-10     2.556735e-07                           (NR   MIcro)
    4      -3349.146759288991     8.714028e-07                           (NR   MAcro)

               *****************************************************
               *                     SUCCESS                       *
               *           SCF CONVERGED AFTER  74 CYCLES          *
               *****************************************************

Old exchange energy                            =    -34.470338799 Eh
New exchange energy                            =    -34.470258700 Eh
Exchange energy change after final integration =      0.000080099 Eh
Total energy after final integration           =  -3349.146679190 Eh
Final COS-X integration done in                =     1.247 sec

----------------
TOTAL SCF ENERGY
----------------

Total Energy       :        -3349.14667919 Eh          -91134.91435 eV

Components:
Nuclear Repulsion  :          644.27918418 Eh           17531.72790 eV
Electronic Energy  :        -3993.42586337 Eh         -108666.64225 eV
One Electron Energy:        -5958.01920710 Eh         -162125.94495 eV
Two Electron Energy:         1964.59334373 Eh           53459.30270 eV
Max COSX asymmetry :            0.00000191 Eh               0.00005 eV

Virial components:
Potential Energy   :        -6693.71818341 Eh         -182145.33186 eV
Kinetic Energy     :         3344.57150422 Eh           91010.41751 eV
Virial Ratio       :            2.00136794


DFT components:
N(Alpha)           :       49.999963155710 electrons
N(Beta)            :       47.999957570500 electrons
N(Total)           :       97.999920726210 electrons
E(X)               :     -137.068378416883 Eh       
E(C)               :       -4.898088108355 Eh       
E(XC)              :     -141.966466525238 Eh       
DFET-embed. en.    :        0.000000000000 Eh       

---------------
SCF CONVERGENCE
---------------

  Last Energy change         ...   -4.5611e-10  Tolerance :   1.0000e-08
  Last Orbital Gradient      ...    8.7140e-07  Tolerance :   1.0000e-05
  Last Orbital Rotation      ...    2.7976e-04

             **** THE GBW FILE WAS UPDATED (NiCl4.gbw) ****
             **** DENSITY NiCl4.scfp WAS UPDATED ****
             **** ENERGY FILE WAS UPDATED (NiCl4.en.tmp) ****
----------------------
UHF SPIN CONTAMINATION
----------------------

Warning: in a DFT calculation there is little theoretical justification to 
         calculate <S**2> as in Hartree-Fock theory. We will do it anyways
         but you should keep in mind that the values have only limited relevance

Expectation value of <S**2>     :     2.003778
Ideal value S*(S+1) for S=1.0   :     2.000000
Deviation                       :     0.003778

             **** THE GBW FILE WAS UPDATED (NiCl4.gbw) ****
             **** DENSITY NiCl4.scfp WAS UPDATED ****
----------------
ORBITAL ENERGIES
----------------
                 SPIN UP ORBITALS
  NO   OCC          E(Eh)            E(eV) 
   0   1.0000    -299.627946     -8153.2909 
   1   1.0000    -101.159360     -2752.6861 
   2   1.0000    -101.159358     -2752.6861 
   3   1.0000    -101.157486     -2752.6351 
   4   1.0000    -101.157484     -2752.6351 
   5   1.0000     -35.571425      -967.9477 
   6   1.0000     -30.995563      -843.4321 
   7   1.0000     -30.991324      -843.3168 
   8   1.0000     -30.987955      -843.2251 
   9   1.0000      -9.091228      -247.3849 
  10   1.0000      -9.091221      -247.3847 
  11   1.0000      -9.089539      -247.3389 
  12   1.0000      -9.089532      -247.3388 
  13   1.0000      -6.849739      -186.3909 
  14   1.0000      -6.849736      -186.3908 
  15   1.0000      -6.847097      -186.3190 
  16   1.0000      -6.847094      -186.3189 
  17   1.0000      -6.846166      -186.2937 
  18   1.0000      -6.846165      -186.2936 
  19   1.0000      -6.846000      -186.2891 
  20   1.0000      -6.846000      -186.2891 
  21   1.0000      -6.844812      -186.2568 
  22   1.0000      -6.844809      -186.2567 
  23   1.0000      -6.844778      -186.2559 
  24   1.0000      -6.844777      -186.2558 
  25   1.0000      -3.842355      -104.5558 
  26   1.0000      -2.439562       -66.3839 
  27   1.0000      -2.431428       -66.1625 
  28   1.0000      -2.424794       -65.9820 
  29   1.0000      -0.451642       -12.2898 
  30   1.0000      -0.446697       -12.1552 
  31   1.0000      -0.445957       -12.1351 
  32   1.0000      -0.445291       -12.1170 
  33   1.0000      -0.128332        -3.4921 
  34   1.0000      -0.128063        -3.4848 
  35   1.0000      -0.092556        -2.5186 
  36   1.0000      -0.089965        -2.4481 
  37   1.0000      -0.087572        -2.3830 
  38   1.0000      -0.054129        -1.4729 
  39   1.0000      -0.006259        -0.1703 
  40   1.0000      -0.004936        -0.1343 
  41   1.0000      -0.003765        -0.1025 
  42   1.0000       0.018616         0.5066 
  43   1.0000       0.019149         0.5211 
  44   1.0000       0.024510         0.6669 
  45   1.0000       0.024766         0.6739 
  46   1.0000       0.025027         0.6810 
  47   1.0000       0.025277         0.6878 
  48   1.0000       0.026133         0.7111 
  49   1.0000       0.031177         0.8484 
  50   0.0000       0.297931         8.1071 
  51   0.0000       0.399767        10.8782 
  52   0.0000       0.432917        11.7803 
  53   0.0000       0.435425        11.8485 
  54   0.0000       0.436804        11.8860 
  55   0.0000       0.535683        14.5767 
  56   0.0000       0.536619        14.6021 
  57   0.0000       0.537596        14.6287 
  58   0.0000       0.544821        14.8253 
  59   0.0000       0.544926        14.8282 
  60   0.0000       0.617035        16.7904 
  61   0.0000       0.642202        17.4752 
  62   0.0000       0.642215        17.4756 
  63   0.0000       0.642493        17.4831 
  64   0.0000       0.645022        17.5519 
  65   0.0000       0.645186        17.5564 
  66   0.0000       0.687573        18.7098 
  67   0.0000       0.688428        18.7331 
  68   0.0000       0.688927        18.7467 
  69   0.0000       0.697435        18.9782 
  70   0.0000       0.697835        18.9891 
  71   0.0000       0.698124        18.9969 
  72   0.0000       0.765239        20.8232 
  73   0.0000       0.765985        20.8435 
  74   0.0000       0.767488        20.8844 
  75   0.0000       0.768725        20.9181 
  76   0.0000       0.769385        20.9360 
  77   0.0000       0.769412        20.9368 
  78   0.0000       0.771850        21.0031 
  79   0.0000       0.772138        21.0109 
  80   0.0000       0.797499        21.7010 
  81   0.0000       0.797797        21.7092 
  82   0.0000       0.798183        21.7197 
  83   0.0000       0.837972        22.8024 
  84   0.0000       0.838837        22.8259 
  85   0.0000       0.838841        22.8260 
  86   0.0000       0.918853        25.0033 
  87   0.0000       0.927397        25.2357 
  88   0.0000       0.927727        25.2447 
  89   0.0000       0.927863        25.2484 
  90   0.0000       1.064221        28.9589 
  91   0.0000       1.064266        28.9602 
  92   0.0000       1.141731        31.0681 
  93   0.0000       1.143005        31.1028 
  94   0.0000       1.145823        31.1794 
  95   0.0000       1.274147        34.6713 
  96   0.0000       1.370833        37.3023 
  97   0.0000       1.371120        37.3101 
  98   0.0000       1.497510        40.7493 
  99   0.0000       1.498269        40.7700 
 100   0.0000       1.505214        40.9590 
 101   0.0000       2.063002        56.1371 
 102   0.0000       2.063483        56.1502 
 103   0.0000       2.063785        56.1585 
 104   0.0000       2.067939        56.2715 
 105   0.0000       2.068798        56.2949 
 106   0.0000       2.069079        56.3025 
 107   0.0000       2.071787        56.3762 
 108   0.0000       2.072262        56.3891 
 109   0.0000       2.076048        56.4921 
 110   0.0000       2.076544        56.5056 
 111   0.0000       2.077388        56.5286 
 112   0.0000       2.165498        58.9262 
 113   0.0000       2.165605        58.9291 
 114   0.0000       2.166262        58.9470 
 115   0.0000       2.221077        60.4386 
 116   0.0000       2.230401        60.6923 
 117   0.0000       2.231951        60.7345 
 118   0.0000       2.232916        60.7607 
 119   0.0000       2.287703        62.2516 
 120   0.0000       2.287833        62.2551 
 121   0.0000       2.375857        64.6504 
 122   0.0000       2.378003        64.7087 
 123   0.0000       2.378721        64.7283 
 124   0.0000       2.410431        65.5912 
 125   0.0000       2.411174        65.6114 
 126   0.0000       2.411593        65.6228 
 127   0.0000       2.422102        65.9087 
 128   0.0000       2.422244        65.9126 
 129   0.0000       2.422507        65.9198 
 130   0.0000       2.431066        66.1527 
 131   0.0000       2.431144        66.1548 
 132   0.0000       2.431337        66.1601 
 133   0.0000       2.431406        66.1619 
 134   0.0000       2.431868        66.1745 
 135   0.0000       2.431947        66.1766 
 136   0.0000       2.432171        66.1827 
 137   0.0000       2.432194        66.1834 
 138   0.0000       2.439641        66.3860 
 139   0.0000       2.439997        66.3957 
 140   0.0000       2.442422        66.4617 
 141   0.0000       2.442703        66.4693 
 142   0.0000       2.442724        66.4699 
 143   0.0000       2.473930        67.3190 
 144   0.0000       2.515700        68.4557 
 145   0.0000       2.516347        68.4733 
 146   0.0000       2.517074        68.4931 
 147   0.0000       2.524912        68.7064 
 148   0.0000       2.530388        68.8554 
 149   0.0000       2.530542        68.8595 
 150   0.0000       2.538480        69.0755 
 151   0.0000       2.538580        69.0783 
 152   0.0000       2.538717        69.0820 
 153   0.0000       2.571402        69.9714 
 154   0.0000       2.571449        69.9727 
 155   0.0000       2.583138        70.2908 
 156   0.0000       2.583277        70.2945 
 157   0.0000       2.583415        70.2983 
 158   0.0000       2.653908        72.2165 
 159   0.0000       2.656801        72.2952 
 160   0.0000       2.656934        72.2988 
 161   0.0000       2.843685        77.3806 
 162   0.0000       2.845828        77.4389 
 163   0.0000       2.847879        77.4947 
 164   0.0000       3.653565        99.4186 
 165   0.0000       4.453118       121.1755 
 166   0.0000       4.453777       121.1934 
 167   0.0000       4.601578       125.2153 
 168   0.0000       4.604207       125.2868 
 169   0.0000       4.628595       125.9505 
 170   0.0000       5.705943       155.2666 
 171   0.0000       5.713587       155.4746 
 172   0.0000       5.724000       155.7580 
 173   0.0000       5.724170       155.7626 
 174   0.0000       5.724637       155.7753 
 175   0.0000       5.743482       156.2881 
 176   0.0000       5.759489       156.7237 
 177   0.0000      11.006440       299.5005 
 178   0.0000      11.006527       299.5028 
 179   0.0000      11.006895       299.5128 
 180   0.0000      11.014988       299.7331 
 181   0.0000      11.015183       299.7384 
 182   0.0000      11.018094       299.8176 
 183   0.0000      11.043367       300.5053 
 184   0.0000      11.043755       300.5159 
 185   0.0000      11.043815       300.5175 
 186   0.0000      11.120040       302.5917 
 187   0.0000      11.121505       302.6315 
 188   0.0000      11.123133       302.6758 
 189   0.0000      24.645230       670.6308 
 190   0.0000      24.645986       670.6514 
 191   0.0000      24.646719       670.6713 
 192   0.0000      24.949175       678.9016 

                 SPIN DOWN ORBITALS
  NO   OCC          E(Eh)            E(eV) 
   0   1.0000    -299.627058     -8153.2668 
   1   1.0000    -101.158717     -2752.6686 
   2   1.0000    -101.158715     -2752.6686 
   3   1.0000    -101.157040     -2752.6230 
   4   1.0000    -101.157038     -2752.6229 
   5   1.0000     -35.527441      -966.7508 
   6   1.0000     -30.957208      -842.3884 
   7   1.0000     -30.955256      -842.3353 
   8   1.0000     -30.953714      -842.2934 
   9   1.0000      -9.090650      -247.3691 
  10   1.0000      -9.090642      -247.3690 
  11   1.0000      -9.089144      -247.3282 
  12   1.0000      -9.089137      -247.3280 
  13   1.0000      -6.847985      -186.3431 
  14   1.0000      -6.847982      -186.3431 
  15   1.0000      -6.846423      -186.3006 
  16   1.0000      -6.846419      -186.3005 
  17   1.0000      -6.845676      -186.2803 
  18   1.0000      -6.845674      -186.2803 
  19   1.0000      -6.845641      -186.2794 
  20   1.0000      -6.845641      -186.2794 
  21   1.0000      -6.844235      -186.2411 
  22   1.0000      -6.844233      -186.2410 
  23   1.0000      -6.844211      -186.2404 
  24   1.0000      -6.844210      -186.2404 
  25   1.0000      -3.746625      -101.9509 
  26   1.0000      -2.332123       -63.4603 
  27   1.0000      -2.330304       -63.4108 
  28   1.0000      -2.328997       -63.3752 
  29   1.0000      -0.448401       -12.2016 
  30   1.0000      -0.442669       -12.0456 
  31   1.0000      -0.442622       -12.0444 
  32   1.0000      -0.442583       -12.0433 
  33   1.0000      -0.059280        -1.6131 
  34   1.0000      -0.053496        -1.4557 
  35   1.0000      -0.052942        -1.4406 
  36   1.0000      -0.048007        -1.3063 
  37   1.0000      -0.011768        -0.3202 
  38   1.0000      -0.008643        -0.2352 
  39   1.0000       0.000630         0.0171 
  40   1.0000       0.010532         0.2866 
  41   1.0000       0.010589         0.2881 
  42   1.0000       0.024610         0.6697 
  43   1.0000       0.026908         0.7322 
  44   1.0000       0.027101         0.7374 
  45   1.0000       0.027298         0.7428 
  46   1.0000       0.027631         0.7519 
  47   1.0000       0.039688         1.0800 
  48   0.0000       0.174215         4.7406 
  49   0.0000       0.174969         4.7612 
  50   0.0000       0.304040         8.2734 
  51   0.0000       0.407240        11.0816 
  52   0.0000       0.442279        12.0350 
  53   0.0000       0.444101        12.0846 
  54   0.0000       0.444380        12.0922 
  55   0.0000       0.539699        14.6859 
  56   0.0000       0.541248        14.7281 
  57   0.0000       0.541723        14.7410 
  58   0.0000       0.547097        14.8873 
  59   0.0000       0.549802        14.9609 
  60   0.0000       0.618531        16.8311 
  61   0.0000       0.643306        17.5052 
  62   0.0000       0.643367        17.5069 
  63   0.0000       0.643407        17.5080 
  64   0.0000       0.646076        17.5806 
  65   0.0000       0.646120        17.5818 
  66   0.0000       0.690315        18.7844 
  67   0.0000       0.690372        18.7860 
  68   0.0000       0.690489        18.7891 
  69   0.0000       0.699097        19.0234 
  70   0.0000       0.699138        19.0245 
  71   0.0000       0.699177        19.0256 
  72   0.0000       0.769738        20.9456 
  73   0.0000       0.770342        20.9621 
  74   0.0000       0.770666        20.9709 
  75   0.0000       0.770863        20.9762 
  76   0.0000       0.771615        20.9967 
  77   0.0000       0.772221        21.0132 
  78   0.0000       0.773491        21.0478 
  79   0.0000       0.773571        21.0499 
  80   0.0000       0.799208        21.7476 
  81   0.0000       0.799343        21.7512 
  82   0.0000       0.799469        21.7547 
  83   0.0000       0.841138        22.8885 
  84   0.0000       0.841627        22.9018 
  85   0.0000       0.841867        22.9084 
  86   0.0000       0.923493        25.1295 
  87   0.0000       0.930331        25.3156 
  88   0.0000       0.930506        25.3204 
  89   0.0000       0.930544        25.3214 
  90   0.0000       1.066267        29.0146 
  91   0.0000       1.066565        29.0227 
  92   0.0000       1.150592        31.3092 
  93   0.0000       1.155277        31.4367 
  94   0.0000       1.156259        31.4634 
  95   0.0000       1.277606        34.7654 
  96   0.0000       1.379310        37.5329 
  97   0.0000       1.386060        37.7166 
  98   0.0000       1.513935        41.1963 
  99   0.0000       1.528642        41.5965 
 100   0.0000       1.531890        41.6848 
 101   0.0000       2.064422        56.1758 
 102   0.0000       2.064781        56.1855 
 103   0.0000       2.064860        56.1877 
 104   0.0000       2.071834        56.3775 
 105   0.0000       2.072173        56.3867 
 106   0.0000       2.072352        56.3916 
 107   0.0000       2.072989        56.4089 
 108   0.0000       2.073246        56.4159 
 109   0.0000       2.078002        56.5453 
 110   0.0000       2.078010        56.5455 
 111   0.0000       2.078068        56.5471 
 112   0.0000       2.168002        58.9943 
 113   0.0000       2.168105        58.9971 
 114   0.0000       2.168299        59.0024 
 115   0.0000       2.224619        60.5350 
 116   0.0000       2.234176        60.7950 
 117   0.0000       2.234521        60.8044 
 118   0.0000       2.234689        60.8090 
 119   0.0000       2.289751        62.3073 
 120   0.0000       2.289772        62.3079 
 121   0.0000       2.393416        65.1282 
 122   0.0000       2.393432        65.1286 
 123   0.0000       2.394251        65.1509 
 124   0.0000       2.413313        65.6696 
 125   0.0000       2.413440        65.6731 
 126   0.0000       2.413457        65.6735 
 127   0.0000       2.424465        65.9731 
 128   0.0000       2.424497        65.9739 
 129   0.0000       2.424541        65.9751 
 130   0.0000       2.432552        66.1931 
 131   0.0000       2.432598        66.1944 
 132   0.0000       2.432833        66.2008 
 133   0.0000       2.432866        66.2016 
 134   0.0000       2.433085        66.2076 
 135   0.0000       2.433165        66.2098 
 136   0.0000       2.433381        66.2157 
 137   0.0000       2.433411        66.2165 
 138   0.0000       2.442149        66.4542 
 139   0.0000       2.442244        66.4568 
 140   0.0000       2.445041        66.5329 
 141   0.0000       2.445067        66.5337 
 142   0.0000       2.445135        66.5355 
 143   0.0000       2.478143        67.4337 
 144   0.0000       2.520360        68.5825 
 145   0.0000       2.520448        68.5849 
 146   0.0000       2.520451        68.5850 
 147   0.0000       2.527386        68.7737 
 148   0.0000       2.532160        68.9036 
 149   0.0000       2.532498        68.9128 
 150   0.0000       2.539682        69.1083 
 151   0.0000       2.539951        69.1156 
 152   0.0000       2.539981        69.1164 
 153   0.0000       2.573434        70.0267 
 154   0.0000       2.573761        70.0356 
 155   0.0000       2.584257        70.3212 
 156   0.0000       2.584429        70.3259 
 157   0.0000       2.584680        70.3327 
 158   0.0000       2.673554        72.7511 
 159   0.0000       2.674039        72.7643 
 160   0.0000       2.675178        72.7953 
 161   0.0000       2.856461        77.7282 
 162   0.0000       2.859120        77.8006 
 163   0.0000       2.859323        77.8061 
 164   0.0000       3.699669       100.6731 
 165   0.0000       4.480096       121.9096 
 166   0.0000       4.492095       122.2361 
 167   0.0000       4.655257       126.6760 
 168   0.0000       4.687885       127.5638 
 169   0.0000       4.696305       127.7930 
 170   0.0000       5.772863       157.0876 
 171   0.0000       5.787117       157.4755 
 172   0.0000       5.788664       157.5176 
 173   0.0000       5.800222       157.8321 
 174   0.0000       5.813364       158.1897 
 175   0.0000       5.819506       158.3568 
 176   0.0000       5.836646       158.8232 
 177   0.0000      11.007206       299.5213 
 178   0.0000      11.007446       299.5278 
 179   0.0000      11.007716       299.5352 
 180   0.0000      11.015891       299.7576 
 181   0.0000      11.015944       299.7591 
 182   0.0000      11.019719       299.8618 
 183   0.0000      11.044170       300.5271 
 184   0.0000      11.044469       300.5353 
 185   0.0000      11.044755       300.5431 
 186   0.0000      11.122648       302.6626 
 187   0.0000      11.123260       302.6793 
 188   0.0000      11.123843       302.6952 
 189   0.0000      24.646230       670.6580 
 190   0.0000      24.646838       670.6746 
 191   0.0000      24.647405       670.6900 
 192   0.0000      24.950057       678.9256 

                    ********************************
                    * MULLIKEN POPULATION ANALYSIS *
                    ********************************

--------------------------------------------
MULLIKEN ATOMIC CHARGES AND SPIN POPULATIONS
--------------------------------------------
   0 Ni:    0.806945    1.739289
   1 Cl:   -0.692129    0.081126
   2 Cl:   -0.692129    0.081126
   3 Cl:   -0.711343    0.049229
   4 Cl:   -0.711343    0.049229
Sum of atomic charges         :   -2.0000000
Sum of atomic spin populations:    2.0000000

-----------------------------------------------------
MULLIKEN REDUCED ORBITAL CHARGES AND SPIN POPULATIONS
-----------------------------------------------------
CHARGE
  0 Nis       :     6.435338  s :     6.435338
      pz      :     4.138075  p :    12.423987
      px      :     4.146053
      py      :     4.139860
      dz2     :     1.851079  d :     8.333546
      dxz     :     2.011934
      dyz     :     1.164350
      dx2y2   :     1.303524
      dxy     :     2.002659
      f0      :     0.000015  f :     0.000183
      f+1     :     0.000021
      f-1     :     0.000034
      f+2     :     0.000052
      f-2     :     0.000010
      f+3     :     0.000033
      f-3     :     0.000018
  1 Cls       :     5.955095  s :     5.955095
      pz      :     3.915943  p :    11.727318
      px      :     3.985850
      py      :     3.825525
      dz2     :     0.001338  d :     0.009135
      dxz     :     0.000897
      dyz     :     0.003349
      dx2y2   :     0.001988
      dxy     :     0.001562
      f0      :     0.000057  f :     0.000581
      f+1     :     0.000011
      f-1     :     0.000137
      f+2     :     0.000152
      f-2     :     0.000083
      f+3     :     0.000067
      f-3     :     0.000074
  2 Cls       :     5.955095  s :     5.955095
      pz      :     3.915943  p :    11.727318
      px      :     3.985850
      py      :     3.825525
      dz2     :     0.001338  d :     0.009135
      dxz     :     0.000897
      dyz     :     0.003349
      dx2y2   :     0.001988
      dxy     :     0.001562
      f0      :     0.000057  f :     0.000581
      f+1     :     0.000011
      f-1     :     0.000137
      f+2     :     0.000152
      f-2     :     0.000083
      f+3     :     0.000067
      f-3     :     0.000074
  3 Cls       :     5.955487  s :     5.955487
      pz      :     3.893809  p :    11.746799
      px      :     3.882509
      py      :     3.970481
      dz2     :     0.001127  d :     0.008549
      dxz     :     0.003259
      dyz     :     0.000790
      dx2y2   :     0.002224
      dxy     :     0.001150
      f0      :     0.000055  f :     0.000508
      f+1     :     0.000116
      f-1     :     0.000011
      f+2     :     0.000133
      f-2     :     0.000075
      f+3     :     0.000066
      f-3     :     0.000051
  4 Cls       :     5.955487  s :     5.955487
      pz      :     3.893809  p :    11.746799
      px      :     3.882509
      py      :     3.970481
      dz2     :     0.001127  d :     0.008549
      dxz     :     0.003259
      dyz     :     0.000790
      dx2y2   :     0.002224
      dxy     :     0.001150
      f0      :     0.000055  f :     0.000508
      f+1     :     0.000116
      f-1     :     0.000011
      f+2     :     0.000133
      f-2     :     0.000075
      f+3     :     0.000066
      f-3     :     0.000051

SPIN
  0 Nis       :     0.010208  s :     0.010208
      pz      :     0.006350  p :     0.013550
      px      :     0.000674
      py      :     0.006525
      dz2     :     0.151640  d :     1.715574
      dxz     :     0.001586
      dyz     :     0.850213
      dx2y2   :     0.711727
      dxy     :     0.000408
      f0      :     0.000002  f :    -0.000043
      f+1     :    -0.000001
      f-1     :    -0.000017
      f+2     :    -0.000011
      f-2     :    -0.000000
      f+3     :    -0.000014
      f-3     :    -0.000001
  1 Cls       :     0.001516  s :     0.001516
      pz      :     0.017963  p :     0.080359
      px      :    -0.000414
      py      :     0.062810
      dz2     :     0.000001  d :    -0.000708
      dxz     :    -0.000075
      dyz     :    -0.000321
      dx2y2   :    -0.000154
      dxy     :    -0.000158
      f0      :    -0.000004  f :    -0.000041
      f+1     :    -0.000001
      f-1     :    -0.000004
      f+2     :    -0.000021
      f-2     :    -0.000003
      f+3     :    -0.000001
      f-3     :    -0.000007
  2 Cls       :     0.001516  s :     0.001516
      pz      :     0.017963  p :     0.080359
      px      :    -0.000414
      py      :     0.062810
      dz2     :     0.000001  d :    -0.000708
      dxz     :    -0.000075
      dyz     :    -0.000321
      dx2y2   :    -0.000154
      dxy     :    -0.000158
      f0      :    -0.000004  f :    -0.000041
      f+1     :    -0.000001
      f-1     :    -0.000004
      f+2     :    -0.000021
      f-2     :    -0.000003
      f+3     :    -0.000001
      f-3     :    -0.000007
  3 Cls       :     0.000222  s :     0.000222
      pz      :     0.040016  p :     0.049024
      px      :    -0.004780
      py      :     0.013788
      dz2     :     0.000154  d :    -0.000002
      dxz     :    -0.000140
      dyz     :     0.000007
      dx2y2   :    -0.000149
      dxy     :     0.000126
      f0      :    -0.000001  f :    -0.000015
      f+1     :     0.000001
      f-1     :    -0.000000
      f+2     :    -0.000012
      f-2     :    -0.000001
      f+3     :    -0.000005
      f-3     :     0.000003
  4 Cls       :     0.000222  s :     0.000222
      pz      :     0.040015  p :     0.049024
      px      :    -0.004780
      py      :     0.013788
      dz2     :     0.000154  d :    -0.000002
      dxz     :    -0.000140
      dyz     :     0.000007
      dx2y2   :    -0.000149
      dxy     :     0.000126
      f0      :    -0.000001  f :    -0.000015
      f+1     :     0.000001
      f-1     :    -0.000000
      f+2     :    -0.000012
      f-2     :    -0.000001
      f+3     :    -0.000005
      f-3     :     0.000003


                     *******************************
                     * LOEWDIN POPULATION ANALYSIS *
                     *******************************

-------------------------------------------
LOEWDIN ATOMIC CHARGES AND SPIN POPULATIONS
-------------------------------------------
   0 Ni:   -0.383322    1.741760
   1 Cl:   -0.396062    0.077055
   2 Cl:   -0.396062    0.077055
   3 Cl:   -0.412277    0.052065
   4 Cl:   -0.412277    0.052065

----------------------------------------------------
LOEWDIN REDUCED ORBITAL CHARGES AND SPIN POPULATIONS
----------------------------------------------------
CHARGE
  0 Nis       :     6.497812  s :     6.497812
      pz      :     4.234428  p :    12.716356
      px      :     4.247945
      py      :     4.233983
      dz2     :     1.979807  d :     9.168933
      dxz     :     2.201510
      dyz     :     1.358853
      dx2y2   :     1.497447
      dxy     :     2.131315
      f0      :     0.000023  f :     0.000220
      f+1     :     0.000026
      f-1     :     0.000039
      f+2     :     0.000056
      f-2     :     0.000013
      f+3     :     0.000039
      f-3     :     0.000024
  1 Cls       :     5.805507  s :     5.805507
      pz      :     3.864751  p :    11.574566
      px      :     3.933738
      py      :     3.776077
      dz2     :     0.002377  d :     0.014911
      dxz     :     0.001323
      dyz     :     0.005434
      dx2y2   :     0.002922
      dxy     :     0.002854
      f0      :     0.000095  f :     0.001078
      f+1     :     0.000020
      f-1     :     0.000281
      f+2     :     0.000254
      f-2     :     0.000167
      f+3     :     0.000143
      f-3     :     0.000118
  2 Cls       :     5.805507  s :     5.805507
      pz      :     3.864751  p :    11.574566
      px      :     3.933738
      py      :     3.776077
      dz2     :     0.002377  d :     0.014911
      dxz     :     0.001323
      dyz     :     0.005434
      dx2y2   :     0.002922
      dxy     :     0.002854
      f0      :     0.000095  f :     0.001078
      f+1     :     0.000020
      f-1     :     0.000281
      f+2     :     0.000254
      f-2     :     0.000167
      f+3     :     0.000143
      f-3     :     0.000118
  3 Cls       :     5.806252  s :     5.806252
      pz      :     3.842402  p :    11.590131
      px      :     3.829460
      py      :     3.918269
      dz2     :     0.001842  d :     0.014818
      dxz     :     0.005760
      dyz     :     0.001155
      dx2y2   :     0.004116
      dxy     :     0.001945
      f0      :     0.000147  f :     0.001076
      f+1     :     0.000181
      f-1     :     0.000020
      f+2     :     0.000323
      f-2     :     0.000141
      f+3     :     0.000169
      f-3     :     0.000096
  4 Cls       :     5.806252  s :     5.806252
      pz      :     3.842402  p :    11.590131
      px      :     3.829460
      py      :     3.918269
      dz2     :     0.001842  d :     0.014818
      dxz     :     0.005760
      dyz     :     0.001155
      dx2y2   :     0.004116
      dxy     :     0.001945
      f0      :     0.000147  f :     0.001076
      f+1     :     0.000181
      f-1     :     0.000020
      f+2     :     0.000323
      f-2     :     0.000141
      f+3     :     0.000169
      f-3     :     0.000096

SPIN
  0 Nis       :     0.004849  s :     0.004849
      pz      :     0.010998  p :     0.023150
      px      :    -0.000535
      py      :     0.012686
      dz2     :     0.152255  d :     1.713803
      dxz     :     0.002449
      dyz     :     0.848160
      dx2y2   :     0.709932
      dxy     :     0.001006
      f0      :     0.000003  f :    -0.000041
      f+1     :    -0.000001
      f-1     :    -0.000017
      f+2     :    -0.000011
      f-2     :    -0.000000
      f+3     :    -0.000014
      f-3     :     0.000000
  1 Cls       :     0.001466  s :     0.001466
      pz      :     0.016886  p :     0.074641
      px      :    -0.000505
      py      :     0.058260
      dz2     :     0.000094  d :     0.000839
      dxz     :    -0.000124
      dyz     :     0.000619
      dx2y2   :     0.000523
      dxy     :    -0.000273
      f0      :     0.000034  f :     0.000110
      f+1     :    -0.000002
      f-1     :    -0.000002
      f+2     :     0.000068
      f-2     :    -0.000012
      f+3     :    -0.000010
      f-3     :     0.000033
  2 Cls       :     0.001466  s :     0.001466
      pz      :     0.016886  p :     0.074640
      px      :    -0.000505
      py      :     0.058260
      dz2     :     0.000094  d :     0.000839
      dxz     :    -0.000124
      dyz     :     0.000619
      dx2y2   :     0.000523
      dxy     :    -0.000273
      f0      :     0.000034  f :     0.000110
      f+1     :    -0.000002
      f-1     :    -0.000002
      f+2     :     0.000068
      f-2     :    -0.000012
      f+3     :    -0.000010
      f-3     :     0.000033
  3 Cls       :     0.000460  s :     0.000460
      pz      :     0.039062  p :     0.050144
      px      :    -0.002869
      py      :     0.013952
      dz2     :     0.000539  d :     0.001355
      dxz     :     0.000511
      dyz     :     0.000023
      dx2y2   :    -0.000161
      dxy     :     0.000443
      f0      :    -0.000006  f :     0.000105
      f+1     :     0.000075
      f-1     :    -0.000001
      f+2     :     0.000011
      f-2     :     0.000009
      f+3     :    -0.000008
      f-3     :     0.000025
  4 Cls       :     0.000460  s :     0.000460
      pz      :     0.039062  p :     0.050144
      px      :    -0.002869
      py      :     0.013952
      dz2     :     0.000539  d :     0.001355
      dxz     :     0.000511
      dyz     :     0.000023
      dx2y2   :    -0.000161
      dxy     :     0.000443
      f0      :    -0.000006  f :     0.000105
      f+1     :     0.000075
      f-1     :    -0.000001
      f+2     :     0.000011
      f-2     :     0.000009
      f+3     :    -0.000008
      f-3     :     0.000025


                      *****************************
                      * MAYER POPULATION ANALYSIS *
                      *****************************

  NA   - Mulliken gross atomic population
  ZA   - Total nuclear charge
  QA   - Mulliken gross atomic charge
  VA   - Mayer's total valence
  BVA  - Mayer's bonded valence
  FA   - Mayer's free valence

  ATOM       NA         ZA         QA         VA         BVA        FA
  0 Ni    27.1931    28.0000     0.8069     3.6255     2.0869     1.5386
  1 Cl    17.6921    17.0000    -0.6921     0.5541     0.5473     0.0068
  2 Cl    17.6921    17.0000    -0.6921     0.5541     0.5473     0.0068
  3 Cl    17.7113    17.0000    -0.7113     0.5331     0.5308     0.0023
  4 Cl    17.7113    17.0000    -0.7113     0.5331     0.5308     0.0023

  Mayer bond orders larger than 0.100000
B(  0-Ni,  1-Cl) :   0.5337 B(  0-Ni,  2-Cl) :   0.5337 B(  0-Ni,  3-Cl) :   0.5097 
B(  0-Ni,  4-Cl) :   0.5097 

-------
TIMINGS
-------

Total SCF time: 0 days 0 hours 0 min 28 sec 

Total time                  ....      28.484 sec
Sum of individual times     ....      28.188 sec  ( 99.0%)

Fock matrix formation       ....      27.086 sec  ( 95.1%)
  Split-RI-J                ....       3.010 sec  ( 11.1% of F)
  Chain of spheres X        ....      19.696 sec  ( 72.7% of F)
  XC integration            ....       4.281 sec  ( 15.8% of F)
    Basis function eval.    ....       0.791 sec  ( 18.5% of XC)
    Density eval.           ....       1.316 sec  ( 30.7% of XC)
    XC-Functional eval.     ....       0.178 sec  (  4.2% of XC)
    XC-Potential eval.      ....       1.728 sec  ( 40.4% of XC)
Diagonalization             ....       0.265 sec  (  0.9%)
Density matrix formation    ....       0.041 sec  (  0.1%)
Population analysis         ....       0.008 sec  (  0.0%)
Initial guess               ....       0.048 sec  (  0.2%)
Orbital Transformation      ....       0.210 sec  (  0.7%)
Orbital Orthonormalization  ....       0.000 sec  (  0.0%)
DIIS solution               ....       0.134 sec  (  0.5%)
Grid generation             ....       0.393 sec  (  1.4%)

Maximum memory used throughout the entire SCF-calculation: 68.4 MB

-------------------------   --------------------
FINAL SINGLE POINT ENERGY     -3349.146679190356
-------------------------   --------------------



           ************************************************************
           *        Program running with 4 parallel MPI-processes     *
           *              working on a common directory               *
           ************************************************************
------------------------------------------------------------------------------
                         ORCA SCF GRADIENT CALCULATION
------------------------------------------------------------------------------

 ... reading COSX grid (gridx3)
Gradient of the Kohn-Sham DFT energy:
Kohn-Sham wavefunction type      ... UKS
Hartree-Fock exchange scaling    ...    0.200
Number of operators              ...    2
Number of atoms                  ...    5
Basis set dimensions             ...  193
Integral neglect threshold       ... 2.5e-11
Integral primitive cutoff        ... 2.5e-12
SHARK Integral package           ... ON

Nuc. rep. gradient       (SHARK) ... done (  0.0 sec)
HCore & Overlap gradient (SHARK) ... done (  0.0 sec)
RI-J gradient            (SHARK) ... done (  0.3 sec)
COSX-gradient                    ... done (  1.5 sec)
Exchange-correlation gradient    ... done

------------------
CARTESIAN GRADIENT
------------------

   1   Ni  :    0.000000199   -0.000000096   -0.000683280
   2   Cl  :    0.000000264   -0.008730991   -0.005084459
   3   Cl  :   -0.000000172    0.008730763   -0.005084289
   4   Cl  :   -0.002746190    0.000000035    0.005411288
   5   Cl  :    0.002746248    0.000000043    0.005411293

Difference to translation invariance:
           :    0.0000003494   -0.0000002459   -0.0000294477

Difference to rotation invariance:
           :   -0.0000001727   -0.0000001064    0.0000016669

Norm of the cartesian gradient     ...    0.0166815045
RMS gradient                       ...    0.0043071459
MAX gradient                       ...    0.0087309907

-------
TIMINGS
-------

Total SCF gradient time            ...        2.353 sec

One electron gradient       ....       0.015 sec  (  0.6%)
RI-J Coulomb gradient       ....       0.270 sec  ( 11.5%)
COSX gradient               ....       1.531 sec  ( 65.1%)
XC gradient                 ....       0.412 sec  ( 17.5%)

Maximum memory used throughout the entire SCFGRAD-calculation: 40.7 MB
------------------------------------------------------------------------------
                         ORCA GEOMETRY RELAXATION STEP
------------------------------------------------------------------------------

Reading the OPT-File                    .... done
Getting information on internals        .... done
Copying old internal coords+grads       .... done
Making the new internal coordinates     .... (new redundants).... done
Validating the new internal coordinates .... (new redundants).... done
Calculating the B-matrix                .... done
Calculating the G,G- and P matrices     .... done
Transforming gradient to internals      .... done
Projecting the internal gradient        .... done
Number of atoms                         ....   5
Number of internal coordinates          ....  10
Current Energy                          .... -3349.146679190 Eh
Current gradient norm                   ....     0.016681504 Eh/bohr
Maximum allowed component of the step   ....  0.300
Current trust radius                    ....  0.300
Evaluating the initial hessian          ....  (Almloef) done
Projecting the Hessian                  .... done
Forming the augmented Hessian           .... done
Diagonalizing the augmented Hessian     .... done
Last element of RFO vector              ....  0.998183364
Lowest eigenvalues of augmented Hessian:
 -0.001237466  0.304114869  0.304114869  0.304114869  0.304964455
Length of the computed step             ....  0.060358890
The final length of the internal step   ....  0.060358890
Converting the step to cartesian space:
 Initial RMS(Int)=    0.0190871570
Transforming coordinates:
 Iter   0:  RMS(Cart)=    0.0234349041 RMS(Int)=    0.0190125205
 Iter   1:  RMS(Cart)=    0.0001910531 RMS(Int)=    0.0001842716
 Iter   2:  RMS(Cart)=    0.0000014980 RMS(Int)=    0.0000020912
 Iter   3:  RMS(Cart)=    0.0000000286 RMS(Int)=    0.0000000187
done
Storing new coordinates                 .... done

                                .--------------------.
          ----------------------|Geometry convergence|-------------------------
          Item                value                   Tolerance       Converged
          ---------------------------------------------------------------------
          RMS gradient        0.0065904766            0.0001000000      NO
          MAX gradient        0.0115715869            0.0003000000      NO
          RMS step            0.0190871570            0.0020000000      NO
          MAX step            0.0329485216            0.0040000000      NO
          ........................................................
          Max(Bonds)      0.0174      Max(Angles)    1.47
          Max(Dihed)        0.00      Max(Improp)    0.00
          ---------------------------------------------------------------------

The optimization has not yet converged - more geometry cycles are needed


    ---------------------------------------------------------------------------
                         Redundant Internal Coordinates
                            (Angstroem and degrees)

        Definition                    Value    dE/dq     Step     New-Value
    ----------------------------------------------------------------------------
     1. B(Cl  1,Ni  0)                2.4360  0.010061 -0.0174    2.4186   
     2. B(Cl  2,Ni  0)                2.4360  0.010061 -0.0174    2.4186   
     3. B(Cl  3,Ni  0)                2.4360  0.005370 -0.0093    2.4267   
     4. B(Cl  4,Ni  0)                2.4360  0.005370 -0.0093    2.4267   
     5. A(Cl  1,Ni  0,Cl  3)          109.47  0.001492   -0.19    109.28   
     6. A(Cl  2,Ni  0,Cl  3)          109.47  0.001491   -0.19    109.28   
     7. A(Cl  1,Ni  0,Cl  4)          109.47  0.001491   -0.19    109.28   
     8. A(Cl  2,Ni  0,Cl  4)          109.47  0.001491   -0.19    109.28   
     9. A(Cl  3,Ni  0,Cl  4)          109.47 -0.011572    1.47    110.94   
    10. A(Cl  1,Ni  0,Cl  2)          109.47  0.005607   -0.71    108.76   
    ----------------------------------------------------------------------------

         *************************************************************
         *                GEOMETRY OPTIMIZATION CYCLE   2            *
         *************************************************************
[...]
B(  0-Ni,  1-Cl) :   0.5497 B(  0-Ni,  2-Cl) :   0.5497 B(  0-Ni,  3-Cl) :   0.5120 
B(  0-Ni,  4-Cl) :   0.5120 

-------
TIMINGS
-------

Total SCF time: 0 days 0 hours 0 min 5 sec 

Total time                  ....       5.847 sec
Sum of individual times     ....       5.739 sec  ( 98.1%)

Fock matrix formation       ....       5.266 sec  ( 90.1%)
  Split-RI-J                ....       0.362 sec  (  6.9% of F)
  Chain of spheres X        ....       4.313 sec  ( 81.9% of F)
  XC integration            ....       0.573 sec  ( 10.9% of F)
    Basis function eval.    ....       0.128 sec  ( 22.4% of XC)
    Density eval.           ....       0.194 sec  ( 33.9% of XC)
    XC-Functional eval.     ....       0.036 sec  (  6.4% of XC)
    XC-Potential eval.      ....       0.169 sec  ( 29.5% of XC)
Diagonalization             ....       0.065 sec  (  1.1%)
Density matrix formation    ....       0.004 sec  (  0.1%)
Population analysis         ....       0.010 sec  (  0.2%)
Initial guess               ....       0.010 sec  (  0.2%)
Orbital Transformation      ....       0.000 sec  (  0.0%)
Orbital Orthonormalization  ....       0.007 sec  (  0.1%)
DIIS solution               ....       0.028 sec  (  0.5%)
Grid generation             ....       0.357 sec  (  6.1%)

Maximum memory used throughout the entire SCF-calculation: 68.4 MB

-------------------------   --------------------
FINAL SINGLE POINT ENERGY     -3349.150450319791
-------------------------   --------------------

                                *** OPTIMIZATION RUN DONE ***

                            ***************************************
                            *     ORCA property calculations      *
                            ***************************************

                                    ---------------------
                                    Active property flags
                                    ---------------------
   (+) Dipole Moment


------------------------------------------------------------------------------
                       ORCA ELECTRIC PROPERTIES CALCULATION
------------------------------------------------------------------------------

Dipole Moment Calculation                       ... on
Quadrupole Moment Calculation                   ... off
Polarizability Calculation                      ... off
GBWName                                         ... NiCl4.gbw
Electron density                                ... NiCl4.scfp
The origin for moment calculation is the CENTER OF MASS  = (-0.000000, -0.000000  0.014043)

-------------
DIPOLE MOMENT
-------------
                                X             Y             Z
Electronic contribution:     -0.00000      -0.00000       0.12101
Nuclear contribution   :      0.00000       0.00000      -0.01575
                        -----------------------------------------
Total Dipole Moment    :     -0.00000      -0.00000       0.10526
                        -----------------------------------------
Magnitude (a.u.)       :      0.10526
Magnitude (Debye)      :      0.26754



--------------------
Rotational spectrum 
--------------------
 
Rotational constants in cm-1:     0.034247     0.031502     0.030346 
Rotational constants in MHz :  1026.694484   944.395172   909.749519 

 Dipole components along the rotational axes: 
x,y,z [a.u.] :    -0.000005    -0.000002     0.105256 
x,y,z [Debye]:    -0.000012    -0.000006     0.267538 

 


           ************************************************************
           *        Program running with 4 parallel MPI-processes     *
           *              working on a common directory               *
           ************************************************************

-------------------------------------------------------------------------------
                               ORCA SCF HESSIAN
-------------------------------------------------------------------------------

                   --------- SHARK INITIALIZATION DONE ---------

Hessian of the Kohn-Sham DFT energy:
Kohn-Sham wavefunction type                      ... UKS
Hartree-Fock exchange scaling                    ...    0.200
Number of operators                              ...    2
Number of atoms                                  ...    5
Basis set dimensions                             ...  193
Integral neglect threshold                       ... 2.5e-11
Integral primitive cutoff                        ... 2.5e-12

Setting up DFT Hessian calculations              ... 

HESS GRID
---------

General Integration Accuracy     IntAcc      ... 4.629
Radial Grid Type                 RadialGrid  ... OptM3 with GC (2021)
Angular Grid (max. ang.)         AngularGrid ... 5 (Lebedev-434)
Angular grid pruning method      GridPruning ... 4 (adaptive)
Weight generation scheme         WeightScheme... Becke
Basis function cutoff            BFCut       ... 1.0000e-11
Integration weight cutoff        WCut        ... 1.0000e-14
Angular grids for H and He will be reduced by one unit
Partially contracted basis set               ... off
Rotationally invariant grid construction     ... off

Total number of grid points                  ...    60362
Total number of batches                      ...      946
Average number of points per batch           ...       63
Average number of grid points per atom       ...    12072

Building densities                               ... done   (      0.0 sec)
Calculating rho(r) on the grid                   ... done   (      0.1 sec)
Building xc-kernel on the grid                   ... done   (      0.0 sec)
                                                     done   (      0.6 sec)

Nuclear repulsion Hessian  (SHARK)               ... done   (      0.0 sec)

----------------------------------------------
Forming right-hand sides of CP-SCF equations     ...
----------------------------------------------
One electron integral derivatives  (SHARK)       ... done   (      0.0 sec)
Transforming the overlap derivative matrices     ... done   (      0.0 sec)
Making the Q(x) pseudodensities                  ... done   (      0.0 sec)
Adding the E*S(x)*S(y) terms to the Hessian      ... done   (      0.0 sec)
Calculating energy weighted overlap derivatives  ... done   (      0.0 sec)
Two electron integral derivatives (SHARK-RI)     ... done   (     10.9 sec)
Exchange-correlation integral derivatives        ... done   (      8.1 sec)
tr(F(y)Q(x)) contribution to the Hessian         ... done   (      0.0 sec)
Response fock operator R(S(x)) (SHARK-RIJCOSX)   ... done   (      1.6 sec)
XC Response fock operator R(S(x))                ... done   (      1.6 sec)
tr(F(y)S(x)) contribution to the Hessian         ... done   (      0.0 sec)
Transforming and finalizing RHSs                 ... done   (      0.0 sec)

----------------------------------------------
Solving the CP-SCF equations (RIJCOSX)           ...
----------------------------------------------
     CP-SCF ITERATION   0:   1.7845e-01 (   1.2 sec   0/ 15 done)
     CP-SCF ITERATION   1:   7.1866e-02 (   1.2 sec   0/ 15 done)
     CP-SCF ITERATION   2:   4.4836e-02 (   1.2 sec   0/ 15 done)
     CP-SCF ITERATION   3:   5.4556e-02 (   1.2 sec   0/ 15 done)
     CP-SCF ITERATION   4:   3.5283e-02 (   1.2 sec   0/ 15 done)
     CP-SCF ITERATION   5:   4.5464e-02 (   1.2 sec   0/ 15 done)
     CP-SCF ITERATION   6:   6.4038e-02 (   1.2 sec   0/ 15 done)
     CP-SCF ITERATION   7:   4.5072e-02 (   1.2 sec   0/ 15 done)
     CP-SCF ITERATION   8:   3.6139e-02 (   1.2 sec   0/ 15 done)
     CP-SCF ITERATION   9:   3.3499e-02 (   1.2 sec   2/ 15 done)
     CP-SCF ITERATION  10:   3.5468e-02 (   1.1 sec   2/ 15 done)
     CP-SCF ITERATION  11:   2.1978e-02 (   1.1 sec   8/ 15 done)
     CP-SCF ITERATION  12:   1.7554e-02 (   0.7 sec   9/ 15 done)
     CP-SCF ITERATION  13:   6.7636e-03 (   0.6 sec  11/ 15 done)
     CP-SCF ITERATION  14:   2.2619e-03 (   0.5 sec  13/ 15 done)
     CP-SCF ITERATION  15:   5.2465e-04 (   0.4 sec  13/ 15 done)
     CP-SCF ITERATION  16:   8.2524e-05 (   0.4 sec  15/ 15 done)
                    *** THE CP-SCF HAS CONVERGED ***

                                                 ... done   (     17.0 sec)
Forming perturbed density Hessian contributions  ... done   (      0.0 sec)
2nd integral derivative contribs (SHARK-RI)      ... done   (     24.1 sec)
Exchange-correlation Hessian                     ... done   (      4.3 sec)
Dipole derivatives                               ... (center of mass: -0.000000, -0.000000  0.014043)done   (      0.1 sec)

Total SCF Hessian time: 0 days 0 hours 1 min 8 sec 

Writing the Hessian file to the disk             ... done


Maximum memory used throughout the entire SCFHESS-calculation: 128.2 MB

-----------------------
VIBRATIONAL FREQUENCIES
-----------------------

Scaling factor for frequencies =  1.000000000  (already applied!)

   0:         0.00 cm**-1
   1:         0.00 cm**-1
   2:         0.00 cm**-1
   3:         0.00 cm**-1
   4:         0.00 cm**-1
   5:         0.00 cm**-1
   6:      -116.86 cm**-1 ***imaginary mode***
   7:        68.40 cm**-1
   8:        69.10 cm**-1
   9:       113.17 cm**-1
  10:       117.32 cm**-1
  11:       215.62 cm**-1
  12:       218.69 cm**-1
  13:       245.76 cm**-1
  14:       259.10 cm**-1


------------
NORMAL MODES
------------

These modes are the Cartesian displacements weighted by the diagonal matrix
M(i,i)=1/sqrt(m[i]) where m[i] is the mass of the displaced atom
Thus, these vectors are normalized but *not* orthogonal

                  0          1          2          3          4          5    
      0       0.000000   0.000000   0.000000   0.000000   0.000000   0.000000
      1       0.000000   0.000000   0.000000   0.000000   0.000000   0.000000
      2       0.000000   0.000000   0.000000   0.000000   0.000000   0.000000
      3       0.000000   0.000000   0.000000   0.000000   0.000000   0.000000
      4       0.000000   0.000000   0.000000   0.000000   0.000000   0.000000
      5       0.000000   0.000000   0.000000   0.000000   0.000000   0.000000
      6       0.000000   0.000000   0.000000   0.000000   0.000000   0.000000
      7       0.000000   0.000000   0.000000   0.000000   0.000000   0.000000
      8       0.000000   0.000000   0.000000   0.000000   0.000000   0.000000
      9       0.000000   0.000000   0.000000   0.000000   0.000000   0.000000
     10       0.000000   0.000000   0.000000   0.000000   0.000000   0.000000
     11       0.000000   0.000000   0.000000   0.000000   0.000000   0.000000
     12       0.000000   0.000000   0.000000   0.000000   0.000000   0.000000
     13       0.000000   0.000000   0.000000   0.000000   0.000000   0.000000
     14       0.000000   0.000000   0.000000   0.000000   0.000000   0.000000
                  6          7          8          9         10         11    
      0      -0.154404  -0.000000   0.000000   0.000001   0.000000   0.000067
      1       0.000001   0.000000   0.000000   0.377024   0.000002  -0.000001
      2       0.000000  -0.000011   0.050573   0.000003  -0.396131   0.302890
      3       0.428533  -0.518945  -0.000105  -0.000001   0.000001  -0.000018
      4       0.000001   0.000052  -0.258042   0.163262  -0.482767   0.138420
      5       0.000001  -0.000081   0.403433   0.419862   0.160105   0.074330
      6       0.428531   0.518947   0.000105  -0.000002  -0.000000  -0.000018
      7      -0.000000  -0.000052   0.258042   0.163257   0.482769  -0.138417
      8      -0.000001  -0.000081   0.403433  -0.419865   0.160100   0.074327
      9      -0.300707   0.000053  -0.266617  -0.000002   0.366978   0.568970
     10      -0.000000  -0.480308  -0.000097  -0.475381  -0.000002  -0.000000
     11       0.462617   0.000091  -0.445300  -0.000002   0.167837  -0.325068
     12      -0.300708  -0.000055   0.266617   0.000003  -0.366979  -0.569044
     13      -0.000002   0.480307   0.000097  -0.475381  -0.000004  -0.000001
     14      -0.462618   0.000089  -0.445300   0.000001   0.167837  -0.325088
                 12         13         14    
      0      -0.740683   0.000004  -0.000001
      1       0.000001   0.000003  -0.607183
      2       0.000032  -0.473946  -0.000003
      3       0.195944  -0.000001   0.000000
      4       0.000018   0.483939   0.465791
      5       0.000011   0.389522   0.312004
      6       0.195944  -0.000001   0.000001
      7      -0.000020  -0.483943   0.465787
      8       0.000011   0.389523  -0.312001
      9       0.417302   0.041868  -0.000001
     10      -0.000001  -0.000001   0.036871
     11      -0.114992   0.002837   0.000001
     12       0.417169  -0.041873   0.000002
     13       0.000000  -0.000000   0.036871
     14       0.114916   0.002836   0.000001


-----------
IR SPECTRUM
-----------

 Mode   freq       eps      Int      T**2         TX        TY        TZ
       cm**-1   L/(mol*cm) km/mol    a.u.
----------------------------------------------------------------------------
  7:     68.40   0.000000    0.00  0.000000  ( 0.000000  0.000000 -0.000003)
  8:     69.10   0.000059    0.30  0.000266  (-0.000000  0.000000  0.016316)
  9:    113.17   0.000965    4.87  0.002660  (-0.000000  0.051574  0.000000)
 10:    117.32   0.001098    5.55  0.002921  ( 0.000000  0.000000 -0.054049)
 11:    215.62   0.005636   28.48  0.008156  ( 0.000019 -0.000000  0.090313)
 12:    218.69   0.023851  120.53  0.034033  (-0.184482  0.000000  0.000009)
 13:    245.76   0.010302   52.06  0.013081  ( 0.000001  0.000001 -0.114374)
 14:    259.10   0.015055   76.08  0.018133  (-0.000000 -0.134659 -0.000001)

* The epsilon (eps) is given for a Dirac delta lineshape.
** The dipole moment derivative (T) already includes vibrational overlap.

The first frequency considered to be a vibration is 7
The total number of vibrations considered is 8


--------------------------
THERMOCHEMISTRY AT 298.15K
--------------------------

Temperature         ... 298.15 K
Pressure            ... 1.00 atm
Total Mass          ... 200.51 AMU

Throughout the following assumptions are being made:
  (1) The electronic state is orbitally nondegenerate
      but the spin degeneracy is treated
  (2) There are no thermally accessible electronically excited states
  (3) Hindered rotations indicated by low frequency modes are not
      treated as such but are treated as vibrations and this may
      cause some error
  (4) All equations used are the standard statistical mechanics
      equations for an ideal gas
  (5) All vibrations are strictly harmonic

freq.      68.40  E(vib)   ...       0.50 
freq.      69.10  E(vib)   ...       0.50 
freq.     113.17  E(vib)   ...       0.45 
freq.     117.32  E(vib)   ...       0.44 
freq.     215.62  E(vib)   ...       0.34 
freq.     218.69  E(vib)   ...       0.33 
freq.     245.76  E(vib)   ...       0.31 
freq.     259.10  E(vib)   ...       0.30 

------------
INNER ENERGY
------------

The inner energy is: U= E(el) + E(ZPE) + E(vib) + E(rot) + E(trans)
    E(el)   - is the total energy from the electronic structure calculation
              = E(kin-el) + E(nuc-el) + E(el-el) + E(nuc-nuc)
    E(ZPE)  - the the zero temperature vibrational energy from the frequency calculation
    E(vib)  - the the finite temperature correction to E(ZPE) due to population
              of excited vibrational states
    E(rot)  - is the rotational thermal energy
    E(trans)- is the translational thermal energy

Summary of contributions to the inner energy U:
Electronic energy                ...  -3349.15045032 Eh
Zero point energy                ...      0.00297797 Eh       1.87 kcal/mol
Thermal vibrational correction   ...      0.00503923 Eh       3.16 kcal/mol
Thermal rotational correction    ...      0.00141627 Eh       0.89 kcal/mol
Thermal translational correction ...      0.00141627 Eh       0.89 kcal/mol
-----------------------------------------------------------------------
Total thermal energy                  -3349.13960058 Eh


Summary of corrections to the electronic energy:
(perhaps to be used in another calculation)
Total thermal correction                  0.00787178 Eh       4.94 kcal/mol
Non-thermal (ZPE) correction              0.00297797 Eh       1.87 kcal/mol
-----------------------------------------------------------------------
Total correction                          0.01084974 Eh       6.81 kcal/mol


--------
ENTHALPY
--------

The enthalpy is H = U + kB*T
                kB is Boltzmann's constant
Total free energy                 ...  -3349.13960058 Eh 
Thermal Enthalpy correction       ...      0.00094421 Eh       0.59 kcal/mol
-----------------------------------------------------------------------
Total Enthalpy                    ...  -3349.13865637 Eh


Note: Rotational entropy computed according to Herzberg 
Infrared and Raman Spectra, Chapter V,1, Van Nostrand Reinhold, 1945 
Point Group:  C2v, Symmetry Number:   2  
Rotational constants in cm-1:     0.034247     0.031502     0.030346 

Vibrational entropy computed according to the QRRHO of S. Grimme
Chem.Eur.J. 2012 18 9955


-------
ENTROPY
-------

The entropy contributions are T*S = T*(S(el)+S(vib)+S(rot)+S(trans))
     S(el)   - electronic entropy
     S(vib)  - vibrational entropy
     S(rot)  - rotational entropy
     S(trans)- translational entropy
The entropies will be listed as multiplied by the temperature to get
units of energy

Electronic entropy                ...      0.00103729 Eh      0.65 kcal/mol
Vibrational entropy               ...      0.00961690 Eh      6.03 kcal/mol
Rotational entropy                ...      0.01373162 Eh      8.62 kcal/mol
Translational entropy             ...      0.01985655 Eh     12.46 kcal/mol
-----------------------------------------------------------------------
Final entropy term                ...      0.04424236 Eh     27.76 kcal/mol

In case the symmetry of your molecule has not been determined correctly
or in case you have a reason to use a different symmetry number we print 
out the resulting rotational entropy values for sn=1,12 :
 --------------------------------------------------------
|  sn= 1 | S(rot)=       0.01438607 Eh      9.03 kcal/mol|
|  sn= 2 | S(rot)=       0.01373162 Eh      8.62 kcal/mol|
|  sn= 3 | S(rot)=       0.01334878 Eh      8.38 kcal/mol|
|  sn= 4 | S(rot)=       0.01307716 Eh      8.21 kcal/mol|
|  sn= 5 | S(rot)=       0.01286647 Eh      8.07 kcal/mol|
|  sn= 6 | S(rot)=       0.01269433 Eh      7.97 kcal/mol|
|  sn= 7 | S(rot)=       0.01254878 Eh      7.87 kcal/mol|
|  sn= 8 | S(rot)=       0.01242270 Eh      7.80 kcal/mol|
|  sn= 9 | S(rot)=       0.01231150 Eh      7.73 kcal/mol|
|  sn=10 | S(rot)=       0.01221202 Eh      7.66 kcal/mol|
|  sn=11 | S(rot)=       0.01212203 Eh      7.61 kcal/mol|
|  sn=12 | S(rot)=       0.01203987 Eh      7.56 kcal/mol|
 --------------------------------------------------------


-------------------
GIBBS FREE ENERGY
-------------------

The Gibbs free energy is G = H - T*S

Total enthalpy                    ...  -3349.13865637 Eh 
Total entropy correction          ...     -0.04424236 Eh    -27.76 kcal/mol
-----------------------------------------------------------------------
Final Gibbs free energy         ...  -3349.18289872 Eh

For completeness - the Gibbs free energy minus the electronic energy
G-E(el)                           ...     -0.03244840 Eh    -20.36 kcal/mol


Timings for individual modules:

Sum of individual times         ...      205.377 sec (=   3.423 min)
GTO integral calculation        ...        4.804 sec (=   0.080 min)   2.3 %
SCF iterations                  ...      106.645 sec (=   1.777 min)  51.9 %
SCF Gradient evaluation         ...       24.932 sec (=   0.416 min)  12.1 %
Geometry relaxation             ...        0.055 sec (=   0.001 min)   0.0 %
Analytical frequency calculation...       68.939 sec (=   1.149 min)  33.6 %
                             ****ORCA TERMINATED NORMALLY****
TOTAL RUN TIME: 0 days 0 hours 3 minutes 28 seconds 707 msec
