
                                 *****************
                                 * O   R   C   A *
                                 *****************

                                            #,                                       
                                            ###                                      
                                            ####                                     
                                            #####                                    
                                            ######                                   
                                           ########,                                 
                                     ,,################,,,,,                         
                               ,,#################################,,                 
                          ,,##########################################,,             
                       ,#########################################, ''#####,          
                    ,#############################################,,   '####,        
                  ,##################################################,,,,####,       
                ,###########''''           ''''###############################       
              ,#####''   ,,,,##########,,,,          '''####'''          '####       
            ,##' ,,,,###########################,,,                        '##       
           ' ,,###''''                  '''############,,,                           
         ,,##''                                '''############,,,,        ,,,,,,###''
      ,#''                                            '''#######################'''  
     '                                                          ''''####''''         
             ,#######,   #######,   ,#######,      ##                                
            ,#'     '#,  ##    ##  ,#'     '#,    #''#        ######   ,####,        
            ##       ##  ##   ,#'  ##            #'  '#       #        #'  '#        
            ##       ##  #######   ##           ,######,      #####,   #    #        
            '#,     ,#'  ##    ##  '#,     ,#' ,#      #,         ##   #,  ,#        
             '#######'   ##     ##  '#######'  #'      '#     #####' # '####'        



                  #######################################################
                  #                        -***-                        #
                  #          Department of theory and spectroscopy      #
                  #    Directorship and core code : Frank Neese         #
                  #        Max Planck Institute fuer Kohlenforschung    #
                  #                Kaiser Wilhelm Platz 1               #
                  #                 D-45470 Muelheim/Ruhr               #
                  #                      Germany                        #
                  #                                                     #
                  #                  All rights reserved                #
                  #                        -***-                        #
                  #######################################################


                         Program Version 5.0.4 -  RELEASE  -


 With contributions from (in alphabetic order):
   Daniel Aravena         : Magnetic Suceptibility
   Michael Atanasov       : Ab Initio Ligand Field Theory (pilot matlab implementation)
   Alexander A. Auer      : GIAO ZORA, VPT2 properties, NMR spectrum
   Ute Becker             : Parallelization
   Giovanni Bistoni       : ED, misc. LED, open-shell LED, HFLD
   Martin Brehm           : Molecular dynamics
   Dmytro Bykov           : SCF Hessian
   Vijay G. Chilkuri      : MRCI spin determinant printing, contributions to CSF-ICE
   Dipayan Datta          : RHF DLPNO-CCSD density
   Achintya Kumar Dutta   : EOM-CC, STEOM-CC
   Dmitry Ganyushin       : Spin-Orbit,Spin-Spin,Magnetic field MRCI
   Miquel Garcia          : C-PCM and meta-GGA Hessian, CC/C-PCM, Gaussian charge scheme
   Yang Guo               : DLPNO-NEVPT2, F12-NEVPT2, CIM, IAO-localization
   Andreas Hansen         : Spin unrestricted coupled pair/coupled cluster methods
   Benjamin Helmich-Paris : MC-RPA, TRAH-SCF, COSX integrals
   Lee Huntington         : MR-EOM, pCC
   Robert Izsak           : Overlap fitted RIJCOSX, COSX-SCS-MP3, EOM
   Marcus Kettner         : VPT2
   Christian Kollmar      : KDIIS, OOCD, Brueckner-CCSD(T), CCSD density, CASPT2, CASPT2-K
   Simone Kossmann        : Meta GGA functionals, TD-DFT gradient, OOMP2, MP2 Hessian
   Martin Krupicka        : Initial AUTO-CI
   Lucas Lang             : DCDCAS
   Marvin Lechner         : AUTO-CI (C++ implementation), FIC-MRCC
   Dagmar Lenk            : GEPOL surface, SMD
   Dimitrios Liakos       : Extrapolation schemes; Compound Job, initial MDCI parallelization
   Dimitrios Manganas     : Further ROCIS development; embedding schemes
   Dimitrios Pantazis     : SARC Basis sets
   Anastasios Papadopoulos: AUTO-CI, single reference methods and gradients
   Taras Petrenko         : DFT Hessian,TD-DFT gradient, ASA, ECA, R-Raman, ABS, FL, XAS/XES, NRVS
   Peter Pinski           : DLPNO-MP2, DLPNO-MP2 Gradient
   Christoph Reimann      : Effective Core Potentials
   Marius Retegan         : Local ZFS, SOC
   Christoph Riplinger    : Optimizer, TS searches, QM/MM, DLPNO-CCSD(T), (RO)-DLPNO pert. Triples
   Tobias Risthaus        : Range-separated hybrids, TD-DFT gradient, RPA, STAB
   Michael Roemelt        : Original ROCIS implementation
   Masaaki Saitow         : Open-shell DLPNO-CCSD energy and density
   Barbara Sandhoefer     : DKH picture change effects
   Avijit Sen             : IP-ROCIS
   Kantharuban Sivalingam : CASSCF convergence, NEVPT2, FIC-MRCI
   Bernardo de Souza      : ESD, SOC TD-DFT
   Georgi Stoychev        : AutoAux, RI-MP2 NMR, DLPNO-MP2 response
   Willem Van den Heuvel  : Paramagnetic NMR
   Boris Wezisla          : Elementary symmetry handling
   Frank Wennmohs         : Technical directorship


 We gratefully acknowledge several colleagues who have allowed us to
 interface, adapt or use parts of their codes:
   Stefan Grimme, W. Hujo, H. Kruse, P. Pracht,  : VdW corrections, initial TS optimization,
                  C. Bannwarth, S. Ehlert          DFT functionals, gCP, sTDA/sTD-DF
   Ed Valeev, F. Pavosevic, A. Kumar             : LibInt (2-el integral package), F12 methods
   Garnet Chan, S. Sharma, J. Yang, R. Olivares  : DMRG
   Ulf Ekstrom                                   : XCFun DFT Library
   Mihaly Kallay                                 : mrcc  (arbitrary order and MRCC methods)
   Jiri Pittner, Ondrej Demel                    : Mk-CCSD
   Frank Weinhold                                : gennbo (NPA and NBO analysis)
   Christopher J. Cramer and Donald G. Truhlar   : smd solvation model
   Lars Goerigk                                  : TD-DFT with DH, B97 family of functionals
   V. Asgeirsson, H. Jonsson                     : NEB implementation
   FAccTs GmbH                                   : IRC, NEB, NEB-TS, DLPNO-Multilevel, CI-OPT
                                                   MM, QMMM, 2- and 3-layer-ONIOM, Crystal-QMMM,
                                                   LR-CPCM, SF, NACMEs, symmetry and pop. for TD-DFT,
                                                   nearIR, NL-DFT gradient (VV10), updates on ESD,
                                                   ML-optimized integration grids
   S Lehtola, MJT Oliveira, MAL Marques          : LibXC Library
   Liviu Ungur et al                             : ANISO software


 Your calculation uses the libint2 library for the computation of 2-el integrals
 For citations please refer to: http://libint.valeyev.net

 Your ORCA version has been built with support for libXC version: 5.1.0
 For citations please refer to: https://tddft.org/programs/libxc/

 This ORCA versions uses:
   CBLAS   interface :  Fast vector & matrix operations
   LAPACKE interface :  Fast linear algebra routines
   SCALAPACK package :  Parallel linear algebra routines
   Shared memory     :  Shared parallel matrices
   BLAS/LAPACK       :  OpenBLAS 0.3.15  USE64BITINT DYNAMIC_ARCH NO_AFFINITY Haswell SINGLE_THREADED
        Core in use  :  Haswell
   Copyright (c) 2011-2014, The OpenBLAS Project


================================================================================

----- Orbital basis set information -----
Your calculation utilizes the basis: def2-TZVP
   F. Weigend and R. Ahlrichs, Phys. Chem. Chem. Phys. 7, 3297 (2005).

----- AuxJ basis set information -----
Your calculation utilizes the auxiliary basis: def2/J
   F. Weigend, Phys. Chem. Chem. Phys. 8, 1057 (2006).

================================================================================
                                        WARNINGS
                       Please study these warnings very carefully!
================================================================================


WARNING: your system is open-shell and RHF/RKS was chosen
  ===> : WILL SWITCH to UHF/UKS


WARNING: Geometry Optimization
  ===> : Switching off AutoStart
         For restart on a previous wavefunction, please use MOREAD

INFO   : the flag for use of the SHARK integral package has been found!

================================================================================
                                       INPUT FILE
================================================================================
NAME = NiCO4.inp
|  1> # avogadro generated ORCA file
|  2> # C4H4O4Ni | Geometry Optimization | B3LYP/def2-TZVP
|  3> # [NiCO4]
|  4> #
|  5> ! Opt B3LYP def2-TZVP FREQ
|  6> 
|  7> %maxcore 4096
|  8> 
|  9> %pal
| 10>    nprocs 4
| 11> end
| 12> 
| 13> * xyz 0 3
| 14>    Ni    -0.000000   -0.000000    0.000000
| 15>    C     -0.350300   -1.748500   -1.260900
| 16>    O     -0.565800   -2.823900   -0.755600
| 17>    C      0.350300    1.748500   -1.260900
| 18>    O      0.565800    2.823900   -0.755600
| 19>    C     -1.748500    0.350300    1.260900
| 20>    O     -2.823900    0.565800    0.755600
| 21>    C      1.748500   -0.350300    1.260900
| 22>    O      2.823900   -0.565800    0.755600
| 23>    H     -0.330900   -1.651300   -2.336400
| 24>    H      0.330900    1.651300   -2.336400
| 25>    H     -1.651300    0.330900    2.336400
| 26>    H      1.651300   -0.330900    2.336400
| 27> *
| 28> 
| 29> 
| 30> 
| 31>                          ****END OF INPUT****
================================================================================

                       *****************************
                       * Geometry Optimization Run *
                       *****************************

Geometry optimization settings:
Update method            Update   .... BFGS
Choice of coordinates    CoordSys .... Z-matrix Internals
Initial Hessian          InHess   .... Almoef's Model

Convergence Tolerances:
Energy Change            TolE     ....  5.0000e-06 Eh
Max. Gradient            TolMAXG  ....  3.0000e-04 Eh/bohr
RMS Gradient             TolRMSG  ....  1.0000e-04 Eh/bohr
Max. Displacement        TolMAXD  ....  4.0000e-03 bohr
RMS Displacement         TolRMSD  ....  2.0000e-03 bohr
Strict Convergence                ....  False
------------------------------------------------------------------------------
                        ORCA OPTIMIZATION COORDINATE SETUP
------------------------------------------------------------------------------

The optimization will be done in new redundant internal coordinates
Making redundant internal coordinates   ...  (new redundants) done
Evaluating the initial hessian          ...  (Almloef) done
Evaluating the coordinates              ...  done
Calculating the B-matrix                .... done
Calculating the G-matrix                .... done
Diagonalizing the G-matrix              .... done
The first mode is                       ....   21
The number of degrees of freedom        ....   33

    -----------------------------------------------------------------
                    Redundant Internal Coordinates


    -----------------------------------------------------------------
         Definition                    Initial Value    Approx d2E/dq
    -----------------------------------------------------------------
      1. B(C   1,Ni  0)                  2.1840         0.342055   
      2. B(O   2,C   1)                  1.2076         1.093735   
      3. B(C   3,Ni  0)                  2.1840         0.342055   
      4. B(O   4,C   3)                  1.2076         1.093735   
      5. B(C   5,Ni  0)                  2.1840         0.342055   
      6. B(O   6,C   5)                  1.2076         1.093735   
      7. B(C   7,Ni  0)                  2.1840         0.342055   
      8. B(O   8,C   7)                  1.2076         1.093735   
      9. B(H   9,C   1)                  1.0801         0.373496   
     10. B(H  10,C   3)                  1.0801         0.373496   
     11. B(H  11,C   5)                  1.0801         0.373496   
     12. B(H  12,C   7)                  1.0801         0.373496   
     13. A(C   1,Ni  0,C   3)          109.4731         0.440631   
     14. A(C   3,Ni  0,C   7)          109.4703         0.440631   
     15. A(C   1,Ni  0,C   5)          109.4703         0.440631   
     16. A(C   3,Ni  0,C   5)          109.4703         0.440631   
     17. A(C   5,Ni  0,C   7)          109.4731         0.440631   
     18. A(C   1,Ni  0,C   7)          109.4703         0.440631   
     19. A(O   2,C   1,H   9)          120.0016         0.389091   
     20. A(Ni  0,C   1,H   9)          119.9980         0.357619   
     21. A(Ni  0,C   1,O   2)          120.0005         0.481829   
     22. A(O   4,C   3,H  10)          120.0016         0.389091   
     23. A(Ni  0,C   3,H  10)          119.9980         0.357619   
     24. A(Ni  0,C   3,O   4)          120.0005         0.481829   
     25. A(Ni  0,C   5,H  11)          119.9980         0.357619   
     26. A(Ni  0,C   5,O   6)          120.0005         0.481829   
     27. A(O   6,C   5,H  11)          120.0016         0.389091   
     28. A(Ni  0,C   7,O   8)          120.0005         0.481829   
     29. A(O   8,C   7,H  12)          120.0016         0.389091   
     30. A(Ni  0,C   7,H  12)          119.9980         0.357619   
     31. D(H   9,C   1,Ni  0,C   7)   -120.0038         0.001980   
     32. D(H   9,C   1,Ni  0,C   3)     -0.0044         0.001980   
     33. D(O   2,C   1,Ni  0,C   7)     60.0033         0.001980   
     34. D(O   2,C   1,Ni  0,C   3)   -179.9973         0.001980   
     35. D(H   9,C   1,Ni  0,C   5)    119.9950         0.001980   
     36. D(O   2,C   1,Ni  0,C   5)    -59.9978         0.001980   
     37. D(O   4,C   3,Ni  0,C   1)   -179.9973         0.001980   
     38. D(H  10,C   3,Ni  0,C   7)    119.9950         0.001980   
     39. D(H  10,C   3,Ni  0,C   5)   -120.0038         0.001980   
     40. D(H  10,C   3,Ni  0,C   1)     -0.0044         0.001980   
     41. D(O   4,C   3,Ni  0,C   7)    -59.9978         0.001980   
     42. D(O   4,C   3,Ni  0,C   5)     60.0033         0.001980   
     43. D(O   6,C   5,Ni  0,C   7)    179.9973         0.001980   
     44. D(O   6,C   5,Ni  0,C   3)     59.9978         0.001980   
     45. D(O   6,C   5,Ni  0,C   1)    -60.0033         0.001980   
     46. D(H  11,C   5,Ni  0,C   7)      0.0044         0.001980   
     47. D(H  11,C   5,Ni  0,C   3)   -119.9950         0.001980   
     48. D(H  11,C   5,Ni  0,C   1)    120.0038         0.001980   
     49. D(H  12,C   7,Ni  0,C   5)      0.0044         0.001980   
     50. D(H  12,C   7,Ni  0,C   3)    120.0038         0.001980   
     51. D(H  12,C   7,Ni  0,C   1)   -119.9950         0.001980   
     52. D(O   8,C   7,Ni  0,C   5)    179.9973         0.001980   
     53. D(O   8,C   7,Ni  0,C   3)    -60.0033         0.001980   
     54. D(O   8,C   7,Ni  0,C   1)     59.9978         0.001980   
    -----------------------------------------------------------------

Number of atoms                         .... 13
Number of degrees of freedom            .... 54

         *************************************************************
         *                GEOMETRY OPTIMIZATION CYCLE   1            *
         *************************************************************
---------------------------------
CARTESIAN COORDINATES (ANGSTROEM)
---------------------------------
  Ni    -0.000000   -0.000000    0.000000
  C     -0.350300   -1.748500   -1.260900
  O     -0.565800   -2.823900   -0.755600
  C      0.350300    1.748500   -1.260900
  O      0.565800    2.823900   -0.755600
  C     -1.748500    0.350300    1.260900
  O     -2.823900    0.565800    0.755600
  C      1.748500   -0.350300    1.260900
  O      2.823900   -0.565800    0.755600
  H     -0.330900   -1.651300   -2.336400
  H      0.330900    1.651300   -2.336400
  H     -1.651300    0.330900    2.336400
  H      1.651300   -0.330900    2.336400

----------------------------
CARTESIAN COORDINATES (A.U.)
----------------------------
  NO LB      ZA    FRAG     MASS         X           Y           Z
   0 Ni   28.0000    0    58.700   -0.000000   -0.000000    0.000000
   1 C     6.0000    0    12.011   -0.661971   -3.304186   -2.382756
   2 O     8.0000    0    15.999   -1.069207   -5.336398   -1.427877
   3 C     6.0000    0    12.011    0.661971    3.304186   -2.382756
   4 O     8.0000    0    15.999    1.069207    5.336398   -1.427877
   5 C     6.0000    0    12.011   -3.304186    0.661971    2.382756
   6 O     8.0000    0    15.999   -5.336398    1.069207    1.427877
   7 C     6.0000    0    12.011    3.304186   -0.661971    2.382756
   8 O     8.0000    0    15.999    5.336398   -1.069207    1.427877
   9 H     1.0000    0     1.008   -0.625310   -3.120505   -4.415156
  10 H     1.0000    0     1.008    0.625310    3.120505   -4.415156
  11 H     1.0000    0     1.008   -3.120505    0.625310    4.415156
  12 H     1.0000    0     1.008    3.120505   -0.625310    4.415156

--------------------------------
INTERNAL COORDINATES (ANGSTROEM)
--------------------------------
 Ni     0   0   0     0.000000000000     0.00000000     0.00000000
 C      1   0   0     2.183994310890     0.00000000     0.00000000
 O      2   1   0     1.207581674256   120.00045221     0.00000000
 C      1   2   3     2.183994310890   109.47312938   180.00273836
 O      4   1   2     1.207581674256   120.00045221   180.00273836
 C      1   2   3     2.183994310890   109.47026627   300.00215392
 O      6   1   2     1.207581674256   120.00045221   299.99667720
 C      1   2   3     2.183994310890   109.47026627    60.00332280
 O      8   1   2     1.207581674256   120.00045221    59.99784608
 H      2   1   3     1.080057614204   119.99798306   179.99285593
 H      4   1   2     1.080057614204   119.99798306     0.00000000
 H      6   1   2     1.080057614204   119.99798306   120.00382128
 H      8   1   2     1.080057614204   119.99798306   240.00499016

---------------------------
INTERNAL COORDINATES (A.U.)
---------------------------
 Ni     0   0   0     0.000000000000     0.00000000     0.00000000
 C      1   0   0     4.127151125624     0.00000000     0.00000000
 O      2   1   0     2.281998648687   120.00045221     0.00000000
 C      1   2   3     4.127151125624   109.47312938   180.00273836
 O      4   1   2     2.281998648687   120.00045221   180.00273836
 C      1   2   3     4.127151125624   109.47026627   300.00215392
 O      6   1   2     2.281998648687   120.00045221   299.99667720
 C      1   2   3     4.127151125624   109.47026627    60.00332280
 O      8   1   2     2.281998648687   120.00045221    59.99784608
 H      2   1   3     2.041013099702   119.99798306   179.99285593
 H      4   1   2     2.041013099702   119.99798306     0.00000000
 H      6   1   2     2.041013099702   119.99798306   120.00382128
 H      8   1   2     2.041013099702   119.99798306   240.00499016

---------------------
BASIS SET INFORMATION
---------------------
There are 4 groups of distinct atoms

 Group   1 Type Ni  : 17s11p7d1f contracted to 6s4p4d1f pattern {842111/6311/4111/1}
 Group   2 Type C   : 11s6p2d1f contracted to 5s3p2d1f pattern {62111/411/11/1}
 Group   3 Type O   : 11s6p2d1f contracted to 5s3p2d1f pattern {62111/411/11/1}
 Group   4 Type H   : 5s1p contracted to 3s1p pattern {311/1}

Atom   0Ni   basis set group =>   1
Atom   1C    basis set group =>   2
Atom   2O    basis set group =>   3
Atom   3C    basis set group =>   2
Atom   4O    basis set group =>   3
Atom   5C    basis set group =>   2
Atom   6O    basis set group =>   3
Atom   7C    basis set group =>   2
Atom   8O    basis set group =>   3
Atom   9H    basis set group =>   4
Atom  10H    basis set group =>   4
Atom  11H    basis set group =>   4
Atom  12H    basis set group =>   4
---------------------------------
AUXILIARY/J BASIS SET INFORMATION
---------------------------------
There are 4 groups of distinct atoms

 Group   1 Type Ni  : 19s5p5d3f3g contracted to 8s5p5d2f3g pattern {121111111/11111/11111/21/111}
 Group   2 Type C   : 12s5p4d2f1g contracted to 6s4p3d1f1g pattern {711111/2111/211/2/1}
 Group   3 Type O   : 12s5p4d2f1g contracted to 6s4p3d1f1g pattern {711111/2111/211/2/1}
 Group   4 Type H   : 5s2p1d contracted to 3s1p1d pattern {311/2/1}

Atom   0Ni   basis set group =>   1
Atom   1C    basis set group =>   2
Atom   2O    basis set group =>   3
Atom   3C    basis set group =>   2
Atom   4O    basis set group =>   3
Atom   5C    basis set group =>   2
Atom   6O    basis set group =>   3
Atom   7C    basis set group =>   2
Atom   8O    basis set group =>   3
Atom   9H    basis set group =>   4
Atom  10H    basis set group =>   4
Atom  11H    basis set group =>   4
Atom  12H    basis set group =>   4


           ************************************************************
           *        Program running with 4 parallel MPI-processes     *
           *              working on a common directory               *
           ************************************************************
------------------------------------------------------------------------------
                           ORCA GTO INTEGRAL CALCULATION
                           -- RI-GTO INTEGRALS CHOSEN --
------------------------------------------------------------------------------
------------------------------------------------------------------------------
                   ___                                                        
                  /   \      - P O W E R E D   B Y -                         
                 /     \                                                     
                 |  |  |   _    _      __       _____    __    __             
                 |  |  |  | |  | |    /  \     |  _  \  |  |  /  |          
                  \  \/   | |  | |   /    \    | | | |  |  | /  /          
                 / \  \   | |__| |  /  /\  \   | |_| |  |  |/  /          
                |  |  |   |  __  | /  /__\  \  |    /   |      \           
                |  |  |   | |  | | |   __   |  |    \   |  |\   \          
                \     /   | |  | | |  |  |  |  | |\  \  |  | \   \       
                 \___/    |_|  |_| |__|  |__|  |_| \__\ |__|  \__/        
                                                                              
                      - O R C A' S   B I G   F R I E N D -                    
                                      &                                       
                       - I N T E G R A L  F E E D E R -                       
                                                                              
 v1 FN, 2020, v2 2021                                                         
------------------------------------------------------------------------------


Reading SHARK input file NiCO4.SHARKINP.tmp ... ok
----------------------
SHARK INTEGRAL PACKAGE
----------------------

Number of atoms                             ...     13
Number of basis functions                   ...    317
Number of shells                            ...    119
Maximum angular momentum                    ...      3
Integral batch strategy                     ... SHARK/LIBINT Hybrid
RI-J (if used) integral strategy            ... SPLIT-RIJ (Revised 2003 algorithm where possible)
Printlevel                                  ...      1
Contraction scheme used                     ... SEGMENTED contraction
Coulomb Range Separation                    ... NOT USED
Exchange Range Separation                   ... NOT USED
Finite Nucleus Model                        ... NOT USED
Auxiliary Coulomb fitting basis             ... AVAILABLE
   # of basis functions in Aux-J            ...    525
   # of shells in Aux-J                     ...    163
   Maximum angular momentum in Aux-J        ...      4
Auxiliary J/K fitting basis                 ... NOT available
Auxiliary Correlation fitting basis         ... NOT available
Auxiliary 'external' fitting basis          ... NOT available
Integral threshold                          ...     2.500000e-11
Primitive cut-off                           ...     2.500000e-12
Primitive pair pre-selection threshold      ...     2.500000e-12

Calculating pre-screening integrals         ... done (  0.0 sec) Dimension = 119
Organizing shell pair data                  ... done (  0.1 sec)
Shell pair information
Total number of shell pairs                 ...      7140
Shell pairs after pre-screening             ...      5870
Total number of primitive shell pairs       ...     24557
Primitive shell pairs kept                  ...     13635
          la=0 lb=0:   1351 shell pairs
          la=1 lb=0:   1552 shell pairs
          la=1 lb=1:    488 shell pairs
          la=2 lb=0:    924 shell pairs
          la=2 lb=1:    568 shell pairs
          la=2 lb=2:    174 shell pairs
          la=3 lb=0:    382 shell pairs
          la=3 lb=1:    248 shell pairs
          la=3 lb=2:    148 shell pairs
          la=3 lb=3:     35 shell pairs

Calculating one electron integrals          ... done (  0.0 sec)
Calculating RI/J V-Matrix + Cholesky decomp.... done (  0.0 sec)
Calculating Nuclear repulsion               ... done (  0.0 sec) ENN=    616.283644834326 Eh

SHARK setup successfully completed in   0.2 seconds

Maximum memory used throughout the entire GTOINT-calculation: 23.0 MB


           ************************************************************
           *        Program running with 4 parallel MPI-processes     *
           *              working on a common directory               *
           ************************************************************
-------------------------------------------------------------------------------
                                 ORCA SCF
-------------------------------------------------------------------------------

------------
SCF SETTINGS
------------
Hamiltonian:
 Density Functional     Method          .... DFT(GTOs)
 Exchange Functional    Exchange        .... B88
   X-Alpha parameter    XAlpha          ....  0.666667
   Becke's b parameter  XBeta           ....  0.004200
 Correlation Functional Correlation     .... LYP
 LDA part of GGA corr.  LDAOpt          .... VWN-5
 Gradients option       PostSCFGGA      .... off
 Hybrid DFT is turned on
   Fraction HF Exchange ScalHFX         ....  0.200000
   Scaling of DF-GGA-X  ScalDFX         ....  0.720000
   Scaling of DF-GGA-C  ScalDFC         ....  0.810000
   Scaling of DF-LDA-C  ScalLDAC        ....  1.000000
   Perturbative correction              ....  0.000000
   Density functional embedding theory  .... OFF
   NL short-range parameter             ....  4.800000
 RI-approximation to the Coulomb term is turned on
   Number of AuxJ basis functions       .... 525
   RIJ-COSX (HFX calculated with COS-X)).... on


General Settings:
 Integral files         IntName         .... NiCO4
 Hartree-Fock type      HFTyp           .... UHF
 Total Charge           Charge          ....    0
 Multiplicity           Mult            ....    3
 Number of Electrons    NEL             ....   88
 Basis Dimension        Dim             ....  317
 Nuclear Repulsion      ENuc            ....    616.2836448343 Eh

Convergence Acceleration:
 DIIS                   CNVDIIS         .... on
   Start iteration      DIISMaxIt       ....    12
   Startup error        DIISStart       ....  0.200000
   # of expansion vecs  DIISMaxEq       ....     5
   Bias factor          DIISBfac        ....   1.050
   Max. coefficient     DIISMaxC        ....  10.000
 Trust-Rad. Augm. Hess. CNVTRAH         .... auto
   Auto Start mean grad. ratio tolernc. ....  1.125000
   Auto Start start iteration           ....    20
   Auto Start num. interpolation iter.  ....    10
   Max. Number of Micro iterations      ....    16
   Max. Number of Macro iterations      .... Maxiter - #DIIS iter
   Number of Davidson start vectors     ....     2
   Converg. threshold I  (grad. norm)   ....   1.000e-05
   Converg. threshold II (energy diff.) ....   1.000e-08
   Grad. Scal. Fac. for Micro threshold ....   0.100
   Minimum threshold for Micro iter.    ....   0.010
   NR start threshold (gradient norm)   ....   0.001
   Initial trust radius                 ....   0.400
   Minimum AH scaling param. (alpha)    ....   1.000
   Maximum AH scaling param. (alpha)    .... 1000.000
   Orbital update algorithm             .... Taylor
   White noise on init. David. guess    .... on
   Maximum white noise                  ....   0.010
   Quad. conv. algorithm                .... NR
 SOSCF                  CNVSOSCF        .... off
 Level Shifting         CNVShift        .... on
   Level shift para.    LevelShift      ....    0.2500
   Turn off err/grad.   ShiftErr        ....    0.0010
 Zerner damping         CNVZerner       .... off
 Static damping         CNVDamp         .... on
   Fraction old density DampFac         ....    0.7000
   Max. Damping (<1)    DampMax         ....    0.9800
   Min. Damping (>=0)   DampMin         ....    0.0000
   Turn off err/grad.   DampErr         ....    0.1000
 Fernandez-Rico         CNVRico         .... off

SCF Procedure:
 Maximum # iterations   MaxIter         ....   125
 SCF integral mode      SCFMode         .... Direct
   Integral package                     .... SHARK and LIBINT hybrid scheme
 Reset frequency        DirectResetFreq ....    20
 Integral Threshold     Thresh          ....  2.500e-11 Eh
 Primitive CutOff       TCut            ....  2.500e-12 Eh

Convergence Tolerance:
 Convergence Check Mode ConvCheckMode   .... Total+1el-Energy
 Convergence forced     ConvForced      .... 0
 Energy Change          TolE            ....  1.000e-08 Eh
 1-El. energy change                    ....  1.000e-05 Eh
 DIIS Error             TolErr          ....  5.000e-07


Diagonalization of the overlap matrix:
Smallest eigenvalue                        ... 1.302e-03
Time for diagonalization                   ...    0.009 sec
Threshold for overlap eigenvalues          ... 1.000e-08
Number of eigenvalues below threshold      ... 0
Time for construction of square roots      ...    0.008 sec
Total time needed                          ...    0.017 sec

Time for model grid setup =    0.080 sec

------------------------------
INITIAL GUESS: MODEL POTENTIAL
------------------------------
Loading Hartree-Fock densities                     ... done
Calculating cut-offs                               ... done
Initializing the effective Hamiltonian             ... done
Setting up the integral package (SHARK)            ... done
Starting the Coulomb interaction                   ... done (   0.1 sec)
Reading the grid                                   ... done
Mapping shells                                     ... done
Starting the XC term evaluation                    ... done (   0.1 sec)
  promolecular density results
     # of electrons  =     87.998168016
     EX              =   -116.173560187
     EC              =     -3.393082794
     EX+EC           =   -119.566642980
Transforming the Hamiltonian                       ... done (   0.0 sec)
Diagonalizing the Hamiltonian                      ... done (   0.0 sec)
Back transforming the eigenvectors                 ... done (   0.0 sec)
Now organizing SCF variables                       ... done
                      ------------------
                      INITIAL GUESS DONE (   0.2 sec)
                      ------------------
-------------------
DFT GRID GENERATION
-------------------

General Integration Accuracy     IntAcc      ... 4.388
Radial Grid Type                 RadialGrid  ... OptM3 with GC (2021)
Angular Grid (max. ang.)         AngularGrid ... 4 (Lebedev-302)
Angular grid pruning method      GridPruning ... 4 (adaptive)
Weight generation scheme         WeightScheme... Becke
Basis function cutoff            BFCut       ... 1.0000e-11
Integration weight cutoff        WCut        ... 1.0000e-14
Angular grids for H and He will be reduced by one unit
Partially contracted basis set               ... off
Rotationally invariant grid construction     ... off

Total number of grid points                  ...    72944
Total number of batches                      ...     1144
Average number of points per batch           ...       63
Average number of grid points per atom       ...     5611
Time for grid setup =    0.377 sec

--------------------
COSX GRID GENERATION
--------------------

GRIDX 1
-------
General Integration Accuracy     IntAcc      ... 3.816
Radial Grid Type                 RadialGrid  ... OptM3 with GC (2021)
Angular Grid (max. ang.)         AngularGrid ... 1 (Lebedev-50)
Angular grid pruning method      GridPruning ... 4 (adaptive)
Weight generation scheme         WeightScheme... Becke
Basis function cutoff            BFCut       ... 1.0000e-11
Integration weight cutoff        WCut        ... 1.0000e-14
Angular grids for H and He will be reduced by one unit
Partially contracted basis set               ... on
Rotationally invariant grid construction     ... off

Total number of grid points                  ...     9064
Total number of batches                      ...      148
Average number of points per batch           ...       61
Average number of grid points per atom       ...      697
UseSFitting                                  ... on

GRIDX 2
-------
General Integration Accuracy     IntAcc      ... 4.020
Radial Grid Type                 RadialGrid  ... OptM3 with GC (2021)
Angular Grid (max. ang.)         AngularGrid ... 2 (Lebedev-110)
Angular grid pruning method      GridPruning ... 4 (adaptive)
Weight generation scheme         WeightScheme... Becke
Basis function cutoff            BFCut       ... 1.0000e-11
Integration weight cutoff        WCut        ... 1.0000e-14
Angular grids for H and He will be reduced by one unit
Partially contracted basis set               ... on
Rotationally invariant grid construction     ... off

Total number of grid points                  ...    20488
Total number of batches                      ...      326
Average number of points per batch           ...       62
Average number of grid points per atom       ...     1576
UseSFitting                                  ... on

GRIDX 3
-------
General Integration Accuracy     IntAcc      ... 4.338
Radial Grid Type                 RadialGrid  ... OptM3 with GC (2021)
Angular Grid (max. ang.)         AngularGrid ... 3 (Lebedev-194)
Angular grid pruning method      GridPruning ... 4 (adaptive)
Weight generation scheme         WeightScheme... Becke
Basis function cutoff            BFCut       ... 1.0000e-11
Integration weight cutoff        WCut        ... 1.0000e-14
Angular grids for H and He will be reduced by one unit
Partially contracted basis set               ... on
Rotationally invariant grid construction     ... off

Total number of grid points                  ...    45450
Total number of batches                      ...      717
Average number of points per batch           ...       63
Average number of grid points per atom       ...     3496
UseSFitting                                  ... on

Time for X-Grid setup             =    0.336 sec

--------------
SCF ITERATIONS
--------------
ITER       Energy         Delta-E        Max-DP      RMS-DP      [F,P]     Damp
               ***  Starting incremental Fock matrix formation  ***
  0  -1963.5344920150   0.000000000000 0.02574802  0.00052036  0.1219177 0.7000
  1  -1963.6502972508  -0.115805235778 0.02049706  0.00032666  0.0459334 0.7000
                               ***Turning on DIIS***
  2  -1963.6839891984  -0.033691947602 0.04007416  0.00056568  0.0176824 0.0000
  3  -1963.7604536860  -0.076464487587 0.01583324  0.00024627  0.0308045 0.0000
  4  -1963.7637416521  -0.003287966106 0.01186887  0.00013869  0.0350760 0.0000
  5  -1963.7716084229  -0.007866770766 0.00291018  0.00005335  0.0084371 0.0000
  6  -1963.7725052065  -0.000896783677 0.00308544  0.00003568  0.0105208 0.0000
  7  -1963.7730831818  -0.000577975290 0.00184674  0.00002446  0.0013674 0.0000
  8  -1963.7732496125  -0.000166430629 0.00170072  0.00002116  0.0011754 0.0000
  9  -1963.7733665539  -0.000116941459 0.00183817  0.00002282  0.0011659 0.0000
 10  -1963.7734729379  -0.000106383949 0.00370339  0.00005425  0.0005921 0.0000
               *** Restarting incremental Fock matrix formation ***
                                   *** Resetting DIIS ***
 11  -1963.7736193429  -0.000146404993 0.00178499  0.00001672  0.0014884 0.0000
 12  -1963.7735629426   0.000056400244 0.00106427  0.00000888  0.0046008 0.0000
 13  -1963.7736479650  -0.000085022387 0.00064431  0.00000663  0.0013739 0.0000
 14  -1963.7736738812  -0.000025916212 0.00304396  0.00003215  0.0007258 0.0000
 15  -1963.7737201934  -0.000046312160 0.00015962  0.00000192  0.0016671 0.0000
 16  -1963.7737278067  -0.000007613345 0.00019954  0.00000217  0.0013640 0.0000
 17  -1963.7737345995  -0.000006792753 0.00029781  0.00000280  0.0011598 0.0000
 18  -1963.7737418861  -0.000007286597 0.00141056  0.00001569  0.0009977 0.0000
 19  -1963.7737693147  -0.000027428624 0.00351423  0.00003621  0.0009356 0.0000

 WARNING: the maximum gradient error descreased on average only by a factor   1.1
          during the last 20 iterations

                      *** Initiating the TRAH-SCF procedure ***


TRAH GRIDX
----------

General Integration Accuracy     IntAcc      ... 3.067
Radial Grid Type                 RadialGrid  ... OptM3 with GC (2021)
Angular Grid (max. ang.)         AngularGrid ... 1 (Lebedev-50)
Angular grid pruning method      GridPruning ... 4 (adaptive)
Weight generation scheme         WeightScheme... Becke
Basis function cutoff            BFCut       ... 1.0000e-11
Integration weight cutoff        WCut        ... 1.0000e-14
Angular grids for H and He will be reduced by one unit
Partially contracted basis set               ... on
Rotationally invariant grid construction     ... off

Total number of grid points                  ...     5002
Total number of batches                      ...       87
Average number of points per batch           ...       57
Average number of grid points per atom       ...      385


TRAH GRID
---------

General Integration Accuracy     IntAcc      ... 3.467
Radial Grid Type                 RadialGrid  ... OptM3 with GC (2021)
Angular Grid (max. ang.)         AngularGrid ... 1 (Lebedev-50)
Angular grid pruning method      GridPruning ... 4 (adaptive)
Weight generation scheme         WeightScheme... Becke
Basis function cutoff            BFCut       ... 1.0000e-11
Integration weight cutoff        WCut        ... 1.0000e-14
Angular grids for H and He will be reduced by one unit
Partially contracted basis set               ... off
Rotationally invariant grid construction     ... off

Total number of grid points                  ...    13508
Total number of batches                      ...      215
Average number of points per batch           ...       62
Average number of grid points per atom       ...     1039

 --------------------------------------------------------------------------------------------
   Iter.        energy            ||Error||_2        Shift      TRadius  Mac/Mic        Rej.
 --------------------------------------------------------------------------------------------
    0      -1963.773840972275     3.036684e-03                     0.400 (TRAH MAcro)   No
    0     dE    -2.389445e-06     5.588583e-03    -2.3894e-06      0.001 (TRAH MIcro)
    0     dE    -2.239175e-03     4.071775e-02    -9.6387e-03      0.400 (TRAH MIcro)
    0     dE    -2.283568e-03     1.599357e-02    -1.4412e-02      0.342 (TRAH MIcro)
    0     dE    -3.164824e-03     4.657485e-02    -1.6872e-02      0.382 (TRAH MIcro)
    0     dE    -3.860757e-03     3.327649e-02    -1.9567e-02      0.400 (TRAH MIcro)
    0     dE    -4.249878e-03     1.423382e-02    -2.2183e-02      0.400 (TRAH MIcro)
    0     dE    -4.380169e-03     8.559190e-03    -2.3083e-02      0.400 (TRAH MIcro)
    0     dE    -4.402209e-03     4.043065e-03    -2.3397e-02      0.399 (TRAH MIcro)
    0     dE    -4.426903e-03     2.223899e-03    -2.3432e-02      0.400 (TRAH MIcro)
    0     dE    -4.429600e-03     8.977497e-04    -2.3446e-02      0.400 (TRAH MIcro)
    0     dE    -4.430024e-03     5.389131e-04    -2.3447e-02      0.400 (TRAH MIcro)
    0     dE    -4.430145e-03     2.789433e-04    -2.3447e-02      0.400 (TRAH MIcro)
    1      -1963.776376615360     1.948195e-02                     0.400 (TRAH MAcro)   No
    1     dE    -6.994722e-05     1.859257e-02    -6.9946e-05      0.004 (TRAH MIcro)
    1     dE    -4.275696e-04     1.999502e-02    -4.2656e-04      0.049 (TRAH MIcro)
    1     dE    -6.317643e-04     1.185542e-02    -6.2743e-04      0.083 (TRAH MIcro)
    1     dE    -7.616766e-04     1.152867e-02    -7.5223e-04      0.112 (TRAH MIcro)
    1     dE    -9.753860e-04     1.518107e-02    -9.4894e-04      0.167 (TRAH MIcro)
    1     dE    -1.064084e-03     6.854770e-03    -1.0262e-03      0.192 (TRAH MIcro)
    1     dE    -1.095001e-03     6.852502e-03    -1.0521e-03      0.202 (TRAH MIcro)
    1     dE    -1.112229e-03     2.908804e-03    -1.0659e-03      0.208 (TRAH MIcro)
    1     dE    -1.117169e-03     1.762902e-03    -1.0696e-03      0.211 (TRAH MIcro)
    2      -1963.777322685926     4.782209e-03                     0.480 (TRAH MAcro)   No
    2     dE    -2.701770e-06     2.059837e-02    -2.7018e-06      0.001 (TRAH MIcro)
    2     dE    -5.580435e-05     1.201392e-02    -5.5786e-05      0.018 (TRAH MIcro)
    2     dE    -8.738180e-05     1.010283e-02    -8.7301e-05      0.030 (TRAH MIcro)
    2     dE    -1.079593e-04     3.696917e-03    -1.0779e-04      0.040 (TRAH MIcro)
    2     dE    -1.287142e-04     4.354135e-03    -1.2837e-04      0.052 (TRAH MIcro)
    2     dE    -1.513394e-04     5.213548e-03    -1.5062e-04      0.069 (TRAH MIcro)
    2     dE    -1.704440e-04     4.624892e-03    -1.6915e-04      0.087 (TRAH MIcro)
    2     dE    -1.910759e-04     5.638053e-03    -1.8879e-04      0.110 (TRAH MIcro)
    2     dE    -2.246501e-04     4.957172e-03    -2.1961e-04      0.151 (TRAH MIcro)
    2     dE    -2.504537e-04     3.876104e-03    -2.4222e-04      0.184 (TRAH MIcro)
    2     dE    -2.574490e-04     2.868457e-03    -2.4818e-04      0.193 (TRAH MIcro)
    2     dE    -2.608310e-04     1.040502e-03    -2.5104e-04      0.197 (TRAH MIcro)
    2     dE    -2.616712e-04     5.903934e-04    -2.5175e-04      0.198 (TRAH MIcro)
    2     dE    -2.618362e-04     3.415883e-04    -2.5189e-04      0.199 (TRAH MIcro)
    3      -1963.777546448937     6.079653e-03                     0.576 (TRAH MAcro)   No
    3     dE    -4.455519e-06     7.438121e-03    -4.4555e-06      0.001 (TRAH MIcro)
    3     dE    -1.110628e-05     3.604910e-03    -1.1106e-05      0.004 (TRAH MIcro)
    3     dE    -1.993456e-05     2.024061e-03    -1.9933e-05      0.009 (TRAH MIcro)
    3     dE    -2.184349e-05     1.589971e-03    -2.1841e-05      0.011 (TRAH MIcro)
    3     dE    -2.245858e-05     7.260639e-04    -2.2456e-05      0.012 (TRAH MIcro)
    3     dE    -2.265299e-05     4.186166e-04    -2.2650e-05      0.012 (TRAH MIcro)
    4      -1963.777569226943     4.034330e-04                           (NR   MAcro)
    4     dE    -6.635892e-08     2.971105e-04                           (NR   MIcro)
    4     dE    -1.130318e-07     3.618754e-04                           (NR   MIcro)
    4     dE    -2.140840e-07     5.650177e-04                           (NR   MIcro)
    4     dE    -4.371477e-07     5.854601e-04                           (NR   MIcro)
    4     dE    -6.040628e-07     3.518866e-04                           (NR   MIcro)
    4     dE    -7.391818e-07     3.556351e-04                           (NR   MIcro)
    4     dE    -8.068073e-07     2.444782e-04                           (NR   MIcro)
    4     dE    -8.402658e-07     1.351783e-04                           (NR   MIcro)
    4     dE    -8.691059e-07     1.401382e-04                           (NR   MIcro)
    4     dE    -8.783219e-07     7.599011e-05                           (NR   MIcro)
    4     dE    -8.814694e-07     4.238718e-05                           (NR   MIcro)
    4     dE    -8.831733e-07     3.273257e-05                           (NR   MIcro)
    4     dE    -8.836672e-07     1.915617e-05                           (NR   MIcro)
    4     dE    -8.837936e-07     6.865014e-06                           (NR   MIcro)
    4     dE    -8.838122e-07     3.829442e-06                           (NR   MIcro)
    5      -1963.777570128646     2.257359e-05                           (NR   MAcro)
    5     dE    -1.248389e-10     2.046296e-05                           (NR   MIcro)
    5     dE    -4.015086e-10     1.146906e-05                           (NR   MIcro)
    5     dE    -4.550431e-10     8.966858e-06                           (NR   MIcro)
    5     dE    -5.314284e-10     7.792416e-06                           (NR   MIcro)
    5     dE    -5.863061e-10     9.955546e-06                           (NR   MIcro)
    5     dE    -7.471627e-10     1.199244e-05                           (NR   MIcro)
    5     dE    -8.468048e-10     1.071847e-05                           (NR   MIcro)
    5     dE    -8.928697e-10     6.661300e-06                           (NR   MIcro)
    5     dE    -9.122393e-10     1.994188e-06                           (NR   MIcro)
    5     dE    -9.146053e-10     1.374675e-06                           (NR   MIcro)
    5     dE    -9.157277e-10     8.781759e-07                           (NR   MIcro)
    6      -1963.777570129514     9.028906e-07                           (NR   MAcro)

               *****************************************************
               *                     SUCCESS                       *
               *           SCF CONVERGED AFTER  94 CYCLES          *
               *****************************************************

Old exchange energy                            =    -23.221010197 Eh
New exchange energy                            =    -23.221052444 Eh
Exchange energy change after final integration =     -0.000042247 Eh
Total energy after final integration           =  -1963.777612377 Eh
Final COS-X integration done in                =     4.428 sec

----------------
TOTAL SCF ENERGY
----------------

Total Energy       :        -1963.77761238 Eh          -53437.10552 eV

Components:
Nuclear Repulsion  :          616.28364483 Eh           16769.93054 eV
Electronic Energy  :        -2580.06125721 Eh          -70207.03607 eV
One Electron Energy:        -3945.09721046 Eh         -107351.55274 eV
Two Electron Energy:         1365.03595325 Eh           37144.51668 eV
Max COSX asymmetry :            0.00000063 Eh               0.00002 eV

Virial components:
Potential Energy   :        -3923.15037968 Eh         -106754.34912 eV
Kinetic Energy     :         1959.37276730 Eh           53317.24359 eV
Virial Ratio       :            2.00224809


DFT components:
N(Alpha)           :       45.000009210542 electrons
N(Beta)            :       43.000007651210 electrons
N(Total)           :       88.000016861752 electrons
E(X)               :      -92.869262400715 Eh       
E(C)               :       -3.986257336745 Eh       
E(XC)              :      -96.855519737461 Eh       
DFET-embed. en.    :        0.000000000000 Eh       

---------------
SCF CONVERGENCE
---------------

  Last Energy change         ...   -8.6811e-10  Tolerance :   1.0000e-08
  Last Orbital Gradient      ...    9.0289e-07  Tolerance :   1.0000e-05
  Last Orbital Rotation      ...    3.2630e-04

             **** THE GBW FILE WAS UPDATED (NiCO4.gbw) ****
             **** DENSITY NiCO4.scfp WAS UPDATED ****
             **** ENERGY FILE WAS UPDATED (NiCO4.en.tmp) ****
----------------------
UHF SPIN CONTAMINATION
----------------------

Warning: in a DFT calculation there is little theoretical justification to 
         calculate <S**2> as in Hartree-Fock theory. We will do it anyways
         but you should keep in mind that the values have only limited relevance

Expectation value of <S**2>     :     2.460834
Ideal value S*(S+1) for S=1.0   :     2.000000
Deviation                       :     0.460834

             **** THE GBW FILE WAS UPDATED (NiCO4.gbw) ****
             **** DENSITY NiCO4.scfp WAS UPDATED ****
----------------
ORBITAL ENERGIES
----------------
                 SPIN UP ORBITALS
  NO   OCC          E(Eh)            E(eV) 
   0   1.0000    -299.860187     -8159.6105 
   1   1.0000     -35.778251      -973.5757 
   2   1.0000     -31.206197      -849.1638 
   3   1.0000     -31.205183      -849.1362 
   4   1.0000     -31.198887      -848.9649 
   5   1.0000     -19.184684      -522.0418 
   6   1.0000     -19.184682      -522.0418 
   7   1.0000     -19.184678      -522.0416 
   8   1.0000     -19.184678      -522.0416 
   9   1.0000     -10.285725      -279.8888 
  10   1.0000     -10.285723      -279.8888 
  11   1.0000     -10.285720      -279.8887 
  12   1.0000     -10.285715      -279.8885 
  13   1.0000      -4.011823      -109.1673 
  14   1.0000      -2.600306       -70.7579 
  15   1.0000      -2.598461       -70.7077 
  16   1.0000      -2.598085       -70.6975 
  17   1.0000      -1.092932       -29.7402 
  18   1.0000      -1.092560       -29.7301 
  19   1.0000      -1.092555       -29.7299 
  20   1.0000      -1.092335       -29.7239 
  21   1.0000      -0.637018       -17.3341 
  22   1.0000      -0.633939       -17.2504 
  23   1.0000      -0.629403       -17.1269 
  24   1.0000      -0.629229       -17.1222 
  25   1.0000      -0.502867       -13.6837 
  26   1.0000      -0.498114       -13.5544 
  27   1.0000      -0.498071       -13.5532 
  28   1.0000      -0.497818       -13.5463 
  29   1.0000      -0.462586       -12.5876 
  30   1.0000      -0.442589       -12.0435 
  31   1.0000      -0.441387       -12.0107 
  32   1.0000      -0.439789       -11.9673 
  33   1.0000      -0.432779       -11.7765 
  34   1.0000      -0.428217       -11.6524 
  35   1.0000      -0.427269       -11.6266 
  36   1.0000      -0.424395       -11.5484 
  37   1.0000      -0.303747        -8.2654 
  38   1.0000      -0.300436        -8.1753 
  39   1.0000      -0.295639        -8.0448 
  40   1.0000      -0.276985        -7.5372 
  41   1.0000      -0.270770        -7.3680 
  42   1.0000      -0.260740        -7.0951 
  43   1.0000      -0.218959        -5.9582 
  44   1.0000      -0.208549        -5.6749 
  45   0.0000      -0.121767        -3.3135 
  46   0.0000      -0.068635        -1.8677 
  47   0.0000      -0.059586        -1.6214 
  48   0.0000      -0.057141        -1.5549 
  49   0.0000      -0.056976        -1.5504 
  50   0.0000       0.022861         0.6221 
  51   0.0000       0.042454         1.1552 
  52   0.0000       0.074193         2.0189 
  53   0.0000       0.080625         2.1939 
  54   0.0000       0.080718         2.1965 
  55   0.0000       0.105540         2.8719 
  56   0.0000       0.133854         3.6423 
  57   0.0000       0.134969         3.6727 
  58   0.0000       0.138503         3.7688 
  59   0.0000       0.180467         4.9108 
  60   0.0000       0.182349         4.9620 
  61   0.0000       0.192754         5.2451 
  62   0.0000       0.193641         5.2692 
  63   0.0000       0.200269         5.4496 
  64   0.0000       0.243694         6.6313 
  65   0.0000       0.244212         6.6453 
  66   0.0000       0.263304         7.1649 
  67   0.0000       0.296956         8.0806 
  68   0.0000       0.297173         8.0865 
  69   0.0000       0.297596         8.0980 
  70   0.0000       0.305045         8.3007 
  71   0.0000       0.315376         8.5818 
  72   0.0000       0.331693         9.0258 
  73   0.0000       0.333624         9.0784 
  74   0.0000       0.344733         9.3807 
  75   0.0000       0.344984         9.3875 
  76   0.0000       0.362317         9.8591 
  77   0.0000       0.381507        10.3813 
  78   0.0000       0.382722        10.4144 
  79   0.0000       0.383922        10.4471 
  80   0.0000       0.415499        11.3063 
  81   0.0000       0.424845        11.5606 
  82   0.0000       0.432590        11.7714 
  83   0.0000       0.432599        11.7716 
  84   0.0000       0.457543        12.4504 
  85   0.0000       0.469524        12.7764 
  86   0.0000       0.469888        12.7863 
  87   0.0000       0.477754        13.0003 
  88   0.0000       0.485701        13.2166 
  89   0.0000       0.486863        13.2482 
  90   0.0000       0.502539        13.6748 
  91   0.0000       0.543577        14.7915 
  92   0.0000       0.554062        15.0768 
  93   0.0000       0.558521        15.1981 
  94   0.0000       0.559828        15.2337 
  95   0.0000       0.605196        16.4682 
  96   0.0000       0.605911        16.4877 
  97   0.0000       0.606942        16.5157 
  98   0.0000       0.617041        16.7905 
  99   0.0000       0.674612        18.3571 
 100   0.0000       0.687054        18.6957 
 101   0.0000       0.707897        19.2629 
 102   0.0000       0.708523        19.2799 
 103   0.0000       0.753263        20.4973 
 104   0.0000       0.781758        21.2727 
 105   0.0000       0.794819        21.6281 
 106   0.0000       0.846694        23.0397 
 107   0.0000       0.847617        23.0648 
 108   0.0000       0.848132        23.0788 
 109   0.0000       0.871240        23.7077 
 110   0.0000       0.872564        23.7437 
 111   0.0000       0.913175        24.8488 
 112   0.0000       0.913672        24.8623 
 113   0.0000       0.916176        24.9304 
 114   0.0000       0.918418        24.9914 
 115   0.0000       0.959684        26.1143 
 116   0.0000       0.987165        26.8621 
 117   0.0000       0.988730        26.9047 
 118   0.0000       1.015615        27.6363 
 119   0.0000       1.064628        28.9700 
 120   0.0000       1.079921        29.3861 
 121   0.0000       1.079988        29.3880 
 122   0.0000       1.113298        30.2944 
 123   0.0000       1.180657        32.1273 
 124   0.0000       1.192102        32.4387 
 125   0.0000       1.250612        34.0309 
 126   0.0000       1.256560        34.1927 
 127   0.0000       1.289613        35.0922 
 128   0.0000       1.296483        35.2791 
 129   0.0000       1.375670        37.4339 
 130   0.0000       1.376003        37.4429 
 131   0.0000       1.376470        37.4557 
 132   0.0000       1.387504        37.7559 
 133   0.0000       1.388443        37.7815 
 134   0.0000       1.414195        38.4822 
 135   0.0000       1.457457        39.6594 
 136   0.0000       1.464704        39.8566 
 137   0.0000       1.482070        40.3292 
 138   0.0000       1.482142        40.3311 
 139   0.0000       1.482267        40.3345 
 140   0.0000       1.483768        40.3754 
 141   0.0000       1.497160        40.7398 
 142   0.0000       1.513858        41.1942 
 143   0.0000       1.514227        41.2042 
 144   0.0000       1.525344        41.5067 
 145   0.0000       1.571751        42.7695 
 146   0.0000       1.611349        43.8470 
 147   0.0000       1.611376        43.8478 
 148   0.0000       1.666515        45.3482 
 149   0.0000       1.724401        46.9233 
 150   0.0000       1.741295        47.3831 
 151   0.0000       1.741702        47.3941 
 152   0.0000       1.821749        49.5723 
 153   0.0000       1.859978        50.6126 
 154   0.0000       1.860935        50.6386 
 155   0.0000       1.877463        51.0884 
 156   0.0000       1.886308        51.3291 
 157   0.0000       1.890832        51.4522 
 158   0.0000       1.890870        51.4532 
 159   0.0000       1.893931        51.5365 
 160   0.0000       1.899386        51.6849 
 161   0.0000       1.938938        52.7612 
 162   0.0000       1.943448        52.8839 
 163   0.0000       1.997454        54.3535 
 164   0.0000       1.998613        54.3850 
 165   0.0000       2.034195        55.3533 
 166   0.0000       2.090821        56.8941 
 167   0.0000       2.091072        56.9010 
 168   0.0000       2.155867        58.6641 
 169   0.0000       2.155912        58.6654 
 170   0.0000       2.157420        58.7064 
 171   0.0000       2.161511        58.8177 
 172   0.0000       2.189240        59.5722 
 173   0.0000       2.224226        60.5243 
 174   0.0000       2.224392        60.5288 
 175   0.0000       2.259892        61.4948 
 176   0.0000       2.283434        62.1354 
 177   0.0000       2.464614        67.0656 
 178   0.0000       2.467015        67.1309 
 179   0.0000       2.508317        68.2548 
 180   0.0000       2.544228        69.2320 
 181   0.0000       2.544621        69.2427 
 182   0.0000       2.545575        69.2686 
 183   0.0000       2.565673        69.8155 
 184   0.0000       2.603955        70.8572 
 185   0.0000       2.624018        71.4032 
 186   0.0000       2.661499        72.4231 
 187   0.0000       2.661959        72.4356 
 188   0.0000       2.686557        73.1049 
 189   0.0000       2.740927        74.5844 
 190   0.0000       2.741107        74.5893 
 191   0.0000       2.783273        75.7367 
 192   0.0000       2.798745        76.1577 
 193   0.0000       2.806608        76.3717 
 194   0.0000       2.865140        77.9644 
 195   0.0000       2.866136        77.9915 
 196   0.0000       2.877869        78.3108 
 197   0.0000       2.896224        78.8103 
 198   0.0000       2.924037        79.5671 
 199   0.0000       2.924200        79.5715 
 200   0.0000       2.930809        79.7514 
 201   0.0000       2.931270        79.7639 
 202   0.0000       2.947525        80.2062 
 203   0.0000       2.957942        80.4897 
 204   0.0000       2.966053        80.7104 
 205   0.0000       2.992399        81.4273 
 206   0.0000       2.992498        81.4300 
 207   0.0000       2.996519        81.5394 
 208   0.0000       3.022784        82.2541 
 209   0.0000       3.025261        82.3215 
 210   0.0000       3.026314        82.3502 
 211   0.0000       3.100766        84.3761 
 212   0.0000       3.102455        84.4221 
 213   0.0000       3.103966        84.4632 
 214   0.0000       3.104232        84.4704 
 215   0.0000       3.120110        84.9025 
 216   0.0000       3.138825        85.4118 
 217   0.0000       3.139023        85.4172 
 218   0.0000       3.199955        87.0752 
 219   0.0000       3.209712        87.3407 
 220   0.0000       3.211502        87.3894 
 221   0.0000       3.212004        87.4031 
 222   0.0000       3.252361        88.5012 
 223   0.0000       3.252623        88.5084 
 224   0.0000       3.259310        88.6903 
 225   0.0000       3.303573        89.8948 
 226   0.0000       3.330506        90.6277 
 227   0.0000       3.336004        90.7773 
 228   0.0000       3.548897        96.5704 
 229   0.0000       3.549598        96.5895 
 230   0.0000       3.554326        96.7181 
 231   0.0000       3.554397        96.7201 
 232   0.0000       3.580036        97.4177 
 233   0.0000       3.645985        99.2123 
 234   0.0000       3.647465        99.2526 
 235   0.0000       3.647490        99.2532 
 236   0.0000       3.658720        99.5588 
 237   0.0000       3.713246       101.0426 
 238   0.0000       3.719927       101.2244 
 239   0.0000       3.732381       101.5633 
 240   0.0000       3.732397       101.5637 
 241   0.0000       4.035722       109.8176 
 242   0.0000       4.057053       110.3980 
 243   0.0000       4.065466       110.6270 
 244   0.0000       4.065520       110.6284 
 245   0.0000       4.250562       115.6637 
 246   0.0000       4.269962       116.1916 
 247   0.0000       4.270721       116.2122 
 248   0.0000       4.279155       116.4417 
 249   0.0000       4.342246       118.1585 
 250   0.0000       4.406215       119.8992 
 251   0.0000       4.434381       120.6656 
 252   0.0000       4.452919       121.1701 
 253   0.0000       4.596867       125.0871 
 254   0.0000       5.109677       139.0414 
 255   0.0000       5.110578       139.0659 
 256   0.0000       5.110588       139.0662 
 257   0.0000       5.117359       139.2504 
 258   0.0000       5.118751       139.2883 
 259   0.0000       5.118761       139.2886 
 260   0.0000       5.119763       139.3158 
 261   0.0000       5.126235       139.4920 
 262   0.0000       5.421486       147.5261 
 263   0.0000       5.428939       147.7290 
 264   0.0000       5.429072       147.7326 
 265   0.0000       5.430811       147.7799 
 266   0.0000       5.503936       149.7697 
 267   0.0000       5.505268       149.8060 
 268   0.0000       5.505574       149.8143 
 269   0.0000       5.515808       150.0928 
 270   0.0000       5.547208       150.9472 
 271   0.0000       5.559862       151.2915 
 272   0.0000       5.570789       151.5889 
 273   0.0000       5.593081       152.1955 
 274   0.0000       5.596416       152.2862 
 275   0.0000       5.607242       152.5808 
 276   0.0000       5.649871       153.7408 
 277   0.0000       5.998534       163.2284 
 278   0.0000       6.003086       163.3523 
 279   0.0000       6.003099       163.3526 
 280   0.0000       6.004073       163.3791 
 281   0.0000       6.111963       166.3150 
 282   0.0000       6.112037       166.3170 
 283   0.0000       6.118198       166.4846 
 284   0.0000       6.135244       166.9485 
 285   0.0000       6.232716       169.6008 
 286   0.0000       6.232919       169.6063 
 287   0.0000       6.244595       169.9241 
 288   0.0000       6.247088       169.9919 
 289   0.0000       6.249116       170.0471 
 290   0.0000       6.250773       170.0922 
 291   0.0000       6.251041       170.0995 
 292   0.0000       6.254801       170.2018 
 293   0.0000       6.299319       171.4132 
 294   0.0000       6.299408       171.4156 
 295   0.0000       6.313388       171.7960 
 296   0.0000       6.320925       172.0011 
 297   0.0000       6.720034       182.8614 
 298   0.0000       6.722130       182.9185 
 299   0.0000       6.723659       182.9600 
 300   0.0000       6.723871       182.9658 
 301   0.0000       6.766112       184.1153 
 302   0.0000       6.766292       184.1202 
 303   0.0000       6.777024       184.4122 
 304   0.0000       6.789052       184.7395 
 305   0.0000       6.966961       189.5806 
 306   0.0000       6.966972       189.5809 
 307   0.0000       6.986141       190.1026 
 308   0.0000       6.993502       190.3029 
 309   0.0000      22.359126       608.4227 
 310   0.0000      22.424033       610.1890 
 311   0.0000      22.477329       611.6392 
 312   0.0000      22.477359       611.6400 
 313   0.0000      43.563527      1185.4238 
 314   0.0000      43.585678      1186.0266 
 315   0.0000      43.585683      1186.0267 
 316   0.0000      43.642422      1187.5707 

                 SPIN DOWN ORBITALS
  NO   OCC          E(Eh)            E(eV) 
   0   1.0000    -299.859924     -8159.6034 
   1   1.0000     -35.785983      -973.7861 
   2   1.0000     -31.217434      -849.4696 
   3   1.0000     -31.216733      -849.4505 
   4   1.0000     -31.194089      -848.8343 
   5   1.0000     -19.178453      -521.8722 
   6   1.0000     -19.178451      -521.8722 
   7   1.0000     -19.178447      -521.8721 
   8   1.0000     -19.178446      -521.8720 
   9   1.0000     -10.280880      -279.7570 
  10   1.0000     -10.280879      -279.7570 
  11   1.0000     -10.280874      -279.7568 
  12   1.0000     -10.280869      -279.7567 
  13   1.0000      -4.029581      -109.6505 
  14   1.0000      -2.633851       -71.6707 
  15   1.0000      -2.632333       -71.6294 
  16   1.0000      -2.586093       -70.3712 
  17   1.0000      -1.081527       -29.4298 
  18   1.0000      -1.081167       -29.4200 
  19   1.0000      -1.081157       -29.4198 
  20   1.0000      -1.080943       -29.4140 
  21   1.0000      -0.619364       -16.8538 
  22   1.0000      -0.616854       -16.7855 
  23   1.0000      -0.612454       -16.6657 
  24   1.0000      -0.612348       -16.6628 
  25   1.0000      -0.485038       -13.1986 
  26   1.0000      -0.483173       -13.1478 
  27   1.0000      -0.481943       -13.1143 
  28   1.0000      -0.481822       -13.1111 
  29   1.0000      -0.438064       -11.9203 
  30   1.0000      -0.426176       -11.5968 
  31   1.0000      -0.425528       -11.5792 
  32   1.0000      -0.422734       -11.5032 
  33   1.0000      -0.418899       -11.3988 
  34   1.0000      -0.413345       -11.2477 
  35   1.0000      -0.412189       -11.2162 
  36   1.0000      -0.411380       -11.1942 
  37   1.0000      -0.317454        -8.6384 
  38   1.0000      -0.305108        -8.3024 
  39   1.0000      -0.286052        -7.7839 
  40   1.0000      -0.271334        -7.3834 
  41   1.0000      -0.265068        -7.2129 
  42   1.0000      -0.225072        -6.1245 
  43   0.0000      -0.133024        -3.6198 
  44   0.0000      -0.131751        -3.5851 
  45   0.0000      -0.120439        -3.2773 
  46   0.0000      -0.058098        -1.5809 
  47   0.0000      -0.057736        -1.5711 
  48   0.0000      -0.049620        -1.3502 
  49   0.0000      -0.048231        -1.3124 
  50   0.0000       0.027718         0.7542 
  51   0.0000       0.045995         1.2516 
  52   0.0000       0.076691         2.0869 
  53   0.0000       0.085070         2.3149 
  54   0.0000       0.085711         2.3323 
  55   0.0000       0.115512         3.1432 
  56   0.0000       0.139942         3.8080 
  57   0.0000       0.141557         3.8520 
  58   0.0000       0.150125         4.0851 
  59   0.0000       0.190902         5.1947 
  60   0.0000       0.195121         5.3095 
  61   0.0000       0.197546         5.3755 
  62   0.0000       0.198706         5.4071 
  63   0.0000       0.202559         5.5119 
  64   0.0000       0.248133         6.7520 
  65   0.0000       0.248641         6.7659 
  66   0.0000       0.266581         7.2540 
  67   0.0000       0.301349         8.2001 
  68   0.0000       0.302589         8.2339 
  69   0.0000       0.303052         8.2465 
  70   0.0000       0.313688         8.5359 
  71   0.0000       0.320122         8.7110 
  72   0.0000       0.332858         9.0575 
  73   0.0000       0.339721         9.2443 
  74   0.0000       0.347212         9.4481 
  75   0.0000       0.347676         9.4608 
  76   0.0000       0.365279         9.9397 
  77   0.0000       0.386212        10.5094 
  78   0.0000       0.387675        10.5492 
  79   0.0000       0.388512        10.5720 
  80   0.0000       0.426885        11.6161 
  81   0.0000       0.432751        11.7757 
  82   0.0000       0.440323        11.9818 
  83   0.0000       0.440797        11.9947 
  84   0.0000       0.464634        12.6433 
  85   0.0000       0.479659        13.0522 
  86   0.0000       0.480998        13.0886 
  87   0.0000       0.481614        13.1054 
  88   0.0000       0.493246        13.4219 
  89   0.0000       0.494377        13.4527 
  90   0.0000       0.514802        14.0085 
  91   0.0000       0.549286        14.9468 
  92   0.0000       0.556603        15.1459 
  93   0.0000       0.564353        15.3568 
  94   0.0000       0.564636        15.3645 
  95   0.0000       0.611901        16.6507 
  96   0.0000       0.612640        16.6708 
  97   0.0000       0.613609        16.6971 
  98   0.0000       0.624238        16.9864 
  99   0.0000       0.682314        18.5667 
 100   0.0000       0.697855        18.9896 
 101   0.0000       0.715527        19.4705 
 102   0.0000       0.716081        19.4855 
 103   0.0000       0.757642        20.6165 
 104   0.0000       0.786265        21.3954 
 105   0.0000       0.799437        21.7538 
 106   0.0000       0.851321        23.1656 
 107   0.0000       0.851351        23.1664 
 108   0.0000       0.856479        23.3060 
 109   0.0000       0.878830        23.9142 
 110   0.0000       0.880206        23.9516 
 111   0.0000       0.919068        25.0091 
 112   0.0000       0.920085        25.0368 
 113   0.0000       0.923426        25.1277 
 114   0.0000       0.926929        25.2230 
 115   0.0000       0.969332        26.3769 
 116   0.0000       0.994016        27.0485 
 117   0.0000       0.995346        27.0847 
 118   0.0000       1.027324        27.9549 
 119   0.0000       1.075183        29.2572 
 120   0.0000       1.089020        29.6337 
 121   0.0000       1.089039        29.6343 
 122   0.0000       1.114912        30.3383 
 123   0.0000       1.189455        32.3667 
 124   0.0000       1.196984        32.5716 
 125   0.0000       1.256791        34.1990 
 126   0.0000       1.261879        34.3375 
 127   0.0000       1.299054        35.3491 
 128   0.0000       1.303828        35.4790 
 129   0.0000       1.378777        37.5184 
 130   0.0000       1.379164        37.5290 
 131   0.0000       1.382661        37.6241 
 132   0.0000       1.392164        37.8827 
 133   0.0000       1.393096        37.9081 
 134   0.0000       1.417256        38.5655 
 135   0.0000       1.463214        39.8161 
 136   0.0000       1.475780        40.1580 
 137   0.0000       1.488499        40.5041 
 138   0.0000       1.488806        40.5125 
 139   0.0000       1.489363        40.5276 
 140   0.0000       1.490858        40.5683 
 141   0.0000       1.501161        40.8487 
 142   0.0000       1.521058        41.3901 
 143   0.0000       1.522638        41.4331 
 144   0.0000       1.534524        41.7565 
 145   0.0000       1.583205        43.0812 
 146   0.0000       1.623216        44.1699 
 147   0.0000       1.623250        44.1709 
 148   0.0000       1.677863        45.6570 
 149   0.0000       1.746421        47.5225 
 150   0.0000       1.756288        47.7910 
 151   0.0000       1.757186        47.8155 
 152   0.0000       1.834292        49.9136 
 153   0.0000       1.872988        50.9666 
 154   0.0000       1.873002        50.9670 
 155   0.0000       1.879869        51.1538 
 156   0.0000       1.888777        51.3962 
 157   0.0000       1.894672        51.5566 
 158   0.0000       1.894858        51.5617 
 159   0.0000       1.908625        51.9363 
 160   0.0000       1.913658        52.0733 
 161   0.0000       1.953778        53.1650 
 162   0.0000       1.956855        53.2487 
 163   0.0000       2.004371        54.5417 
 164   0.0000       2.007893        54.6375 
 165   0.0000       2.043228        55.5991 
 166   0.0000       2.102671        57.2166 
 167   0.0000       2.103095        57.2281 
 168   0.0000       2.161303        58.8120 
 169   0.0000       2.168882        59.0183 
 170   0.0000       2.169235        59.0279 
 171   0.0000       2.176629        59.2291 
 172   0.0000       2.194518        59.7159 
 173   0.0000       2.233579        60.7788 
 174   0.0000       2.234533        60.8047 
 175   0.0000       2.275229        61.9121 
 176   0.0000       2.295284        62.4578 
 177   0.0000       2.469486        67.1981 
 178   0.0000       2.477875        67.4264 
 179   0.0000       2.513362        68.3920 
 180   0.0000       2.558818        69.6290 
 181   0.0000       2.559467        69.6466 
 182   0.0000       2.559572        69.6495 
 183   0.0000       2.570876        69.9571 
 184   0.0000       2.609250        71.0013 
 185   0.0000       2.638150        71.7877 
 186   0.0000       2.667653        72.5905 
 187   0.0000       2.668359        72.6097 
 188   0.0000       2.701041        73.4991 
 189   0.0000       2.760392        75.1141 
 190   0.0000       2.761347        75.1401 
 191   0.0000       2.803722        76.2932 
 192   0.0000       2.819443        76.7209 
 193   0.0000       2.827887        76.9507 
 194   0.0000       2.886523        78.5463 
 195   0.0000       2.887742        78.5794 
 196   0.0000       2.893919        78.7475 
 197   0.0000       2.913653        79.2845 
 198   0.0000       2.939194        79.9795 
 199   0.0000       2.940849        80.0246 
 200   0.0000       2.943203        80.0886 
 201   0.0000       2.943525        80.0974 
 202   0.0000       2.960348        80.5552 
 203   0.0000       2.965763        80.7025 
 204   0.0000       2.981559        81.1323 
 205   0.0000       2.999320        81.6157 
 206   0.0000       3.000119        81.6374 
 207   0.0000       3.009125        81.8824 
 208   0.0000       3.033619        82.5490 
 209   0.0000       3.035867        82.6101 
 210   0.0000       3.036954        82.6397 
 211   0.0000       3.108750        84.5934 
 212   0.0000       3.111833        84.6773 
 213   0.0000       3.112788        84.7033 
 214   0.0000       3.112892        84.7061 
 215   0.0000       3.130279        85.1792 
 216   0.0000       3.154033        85.8256 
 217   0.0000       3.154908        85.8494 
 218   0.0000       3.210522        87.3627 
 219   0.0000       3.227660        87.8291 
 220   0.0000       3.228843        87.8613 
 221   0.0000       3.228928        87.8636 
 222   0.0000       3.261778        88.7575 
 223   0.0000       3.262434        88.7753 
 224   0.0000       3.274798        89.1118 
 225   0.0000       3.314745        90.1988 
 226   0.0000       3.342707        90.9597 
 227   0.0000       3.342971        90.9669 
 228   0.0000       3.554556        96.7244 
 229   0.0000       3.555524        96.7507 
 230   0.0000       3.559929        96.8706 
 231   0.0000       3.560050        96.8739 
 232   0.0000       3.575347        97.2901 
 233   0.0000       3.664457        99.7149 
 234   0.0000       3.666558        99.7721 
 235   0.0000       3.666664        99.7750 
 236   0.0000       3.676960       100.0552 
 237   0.0000       3.726474       101.4025 
 238   0.0000       3.731849       101.5488 
 239   0.0000       3.744103       101.8822 
 240   0.0000       3.744161       101.8838 
 241   0.0000       4.041719       109.9808 
 242   0.0000       4.062434       110.5444 
 243   0.0000       4.071353       110.7872 
 244   0.0000       4.071426       110.7891 
 245   0.0000       4.263899       116.0266 
 246   0.0000       4.279567       116.4530 
 247   0.0000       4.281501       116.5056 
 248   0.0000       4.291752       116.7845 
 249   0.0000       4.336537       118.0032 
 250   0.0000       4.403864       119.8352 
 251   0.0000       4.409463       119.9876 
 252   0.0000       4.440463       120.8311 
 253   0.0000       4.602708       125.2460 
 254   0.0000       5.123928       139.4292 
 255   0.0000       5.124838       139.4539 
 256   0.0000       5.124854       139.4544 
 257   0.0000       5.131634       139.6389 
 258   0.0000       5.132648       139.6665 
 259   0.0000       5.132655       139.6667 
 260   0.0000       5.133687       139.6947 
 261   0.0000       5.140072       139.8685 
 262   0.0000       5.431978       147.8116 
 263   0.0000       5.439370       148.0128 
 264   0.0000       5.439511       148.0166 
 265   0.0000       5.441294       148.0651 
 266   0.0000       5.514187       150.0486 
 267   0.0000       5.514818       150.0658 
 268   0.0000       5.515901       150.0953 
 269   0.0000       5.522684       150.2799 
 270   0.0000       5.526675       150.3885 
 271   0.0000       5.532555       150.5485 
 272   0.0000       5.561721       151.3421 
 273   0.0000       5.587786       152.0514 
 274   0.0000       5.592889       152.1902 
 275   0.0000       5.601488       152.4242 
 276   0.0000       5.630860       153.2235 
 277   0.0000       6.002823       163.3451 
 278   0.0000       6.007272       163.4662 
 279   0.0000       6.007293       163.4668 
 280   0.0000       6.008357       163.4957 
 281   0.0000       6.129217       166.7845 
 282   0.0000       6.129246       166.7853 
 283   0.0000       6.134853       166.9378 
 284   0.0000       6.151442       167.3892 
 285   0.0000       6.241962       169.8524 
 286   0.0000       6.242122       169.8568 
 287   0.0000       6.253575       170.1684 
 288   0.0000       6.258868       170.3125 
 289   0.0000       6.268758       170.5816 
 290   0.0000       6.272472       170.6826 
 291   0.0000       6.272644       170.6873 
 292   0.0000       6.276606       170.7951 
 293   0.0000       6.319049       171.9501 
 294   0.0000       6.319054       171.9502 
 295   0.0000       6.332957       172.3285 
 296   0.0000       6.341200       172.5528 
 297   0.0000       6.723714       182.9616 
 298   0.0000       6.725808       183.0185 
 299   0.0000       6.727240       183.0575 
 300   0.0000       6.727949       183.0768 
 301   0.0000       6.783607       184.5913 
 302   0.0000       6.784234       184.6084 
 303   0.0000       6.795153       184.9055 
 304   0.0000       6.807127       185.2313 
 305   0.0000       6.974588       189.7882 
 306   0.0000       6.974592       189.7883 
 307   0.0000       6.993381       190.2996 
 308   0.0000       7.001002       190.5069 
 309   0.0000      22.365181       608.5875 
 310   0.0000      22.430166       610.3558 
 311   0.0000      22.483385       611.8040 
 312   0.0000      22.483397       611.8043 
 313   0.0000      43.569832      1185.5954 
 314   0.0000      43.591983      1186.1982 
 315   0.0000      43.591989      1186.1983 
 316   0.0000      43.648723      1187.7421 

                    ********************************
                    * MULLIKEN POPULATION ANALYSIS *
                    ********************************

--------------------------------------------
MULLIKEN ATOMIC CHARGES AND SPIN POPULATIONS
--------------------------------------------
   0 Ni:    0.172984   -0.224196
   1 C :    0.019891    0.269969
   2 O :   -0.191497    0.197995
   3 C :    0.019890    0.269968
   4 O :   -0.191496    0.197995
   5 C :    0.019900    0.269942
   6 O :   -0.191493    0.197995
   7 C :    0.019901    0.269942
   8 O :   -0.191493    0.197995
   9 H :    0.128352    0.088100
  10 H :    0.128353    0.088100
  11 H :    0.128355    0.088096
  12 H :    0.128354    0.088097
Sum of atomic charges         :   -0.0000000
Sum of atomic spin populations:    2.0000000

-----------------------------------------------------
MULLIKEN REDUCED ORBITAL CHARGES AND SPIN POPULATIONS
-----------------------------------------------------
CHARGE
  0 Nis       :     6.637996  s :     6.637996
      pz      :     4.150134  p :    12.427857
      px      :     4.125269
      py      :     4.152454
      dz2     :     1.988172  d :     8.761020
      dxz     :     1.605000
      dyz     :     1.393695
      dx2y2   :     1.851384
      dxy     :     1.922769
      f0      :     0.000020  f :     0.000144
      f+1     :     0.000013
      f-1     :     0.000018
      f+2     :     0.000041
      f-2     :     0.000022
      f+3     :     0.000016
      f-3     :     0.000013
  1 C s       :     3.374848  s :     3.374848
      pz      :     0.930427  p :     2.477430
      px      :     0.659725
      py      :     0.887278
      dz2     :     0.033444  d :     0.115447
      dxz     :     0.004964
      dyz     :     0.030361
      dx2y2   :     0.020731
      dxy     :     0.025947
[...]
     17      -0.159541   0.240021   0.232212  -0.270634   0.215487   0.006107
     18      -0.181288  -0.020294  -0.008135   0.001227   0.011113   0.021105
     19       0.105870   0.008929   0.004383   0.006616  -0.006008   0.033087
     20       0.175020  -0.054677  -0.057035   0.064800  -0.048325  -0.004322
     21      -0.128836  -0.078378  -0.072836  -0.059631   0.040863  -0.033736
     22       0.010750   0.053182   0.037365   0.055272  -0.022326  -0.123053
     23       0.159755  -0.239458  -0.232105  -0.270783   0.215681  -0.006511
     24      -0.179199  -0.020266  -0.008274  -0.001363  -0.010894   0.020609
     25       0.105293   0.008601   0.004137  -0.006829   0.006190   0.031951
     26      -0.174133   0.054580   0.056930   0.064777  -0.048312   0.004379
     27      -0.259713  -0.098468   0.031010  -0.063078   0.004345  -0.455530
     28      -0.050875   0.277886  -0.301782  -0.243052  -0.323914   0.039113
     29      -0.211523   0.273300  -0.325872  -0.254728  -0.342982   0.018540
     30      -0.262361  -0.097395   0.031395   0.063071  -0.005593  -0.439079
     31      -0.049258   0.278095  -0.301979   0.243132   0.323521   0.035965
     32       0.210944  -0.273951   0.326223  -0.254591  -0.342747  -0.018095
     33       0.152757  -0.256062  -0.236821   0.327258  -0.233977   0.164439
     34       0.218971   0.214561   0.128302  -0.070596   0.125758   0.496681
     35      -0.209183   0.313344   0.287420  -0.342133   0.277499   0.026609
     36       0.153286  -0.255191  -0.236805  -0.327526   0.234829   0.158041
     37       0.215904   0.215585   0.128108   0.070100  -0.124558   0.479867
     38       0.210232  -0.312449  -0.287185  -0.342478   0.277630  -0.024731
                 24         25         26         27         28         29    
      0      -0.000243   0.016559   0.000017  -0.002145  -0.002201   0.000003
      1       0.000407   0.008809  -0.000022   0.001994  -0.002268   0.000004
      2       0.006573   0.000036   0.000568   0.000001   0.000002  -0.001055
      3      -0.103713  -0.123326  -0.124625  -0.001233   0.008056  -0.002401
      4       0.006977   0.016311   0.014818  -0.023955   0.034873  -0.028362
      5      -0.013485   0.003744  -0.002306  -0.034443   0.049759  -0.036685
      6       0.031292   0.034093   0.033233  -0.000559  -0.000448  -0.000395
      7      -0.000734  -0.001368   0.000666  -0.007308   0.012293  -0.006312
      8       0.004820   0.002445  -0.000417   0.019783  -0.030745   0.021910
      9       0.107221  -0.123457   0.124556  -0.001241   0.008106   0.002414
     10      -0.007353   0.016166  -0.014624  -0.023978   0.034931   0.028323
     11      -0.013571  -0.003958  -0.002147   0.034477  -0.049834  -0.036633
     12      -0.032324   0.034129  -0.033210  -0.000521  -0.000515   0.000350
     13       0.000479  -0.001334  -0.000719  -0.007314   0.012307   0.006302
     14       0.004907  -0.002379  -0.000465  -0.019802   0.030786   0.021876
     15       0.036819  -0.029072  -0.032915   0.036533   0.022678   0.036795
     16       0.105242  -0.104918  -0.113591  -0.009180  -0.001604  -0.011299
     17      -0.010010  -0.008701  -0.000510  -0.052809  -0.030087  -0.052856
     18      -0.012563   0.009686   0.013896   0.010469   0.006628   0.009467
     19      -0.030875   0.028211   0.027961  -0.004968  -0.004028  -0.004102
     20       0.003950  -0.000685   0.000864   0.031459   0.019401   0.031787
     21      -0.037776  -0.028832   0.032682   0.036517   0.022636  -0.036753
     22      -0.109401  -0.104915   0.113739  -0.009234  -0.001647   0.011357
     23      -0.010687   0.008356  -0.000247   0.052843   0.030100  -0.052855
     24       0.013183   0.009640  -0.013819   0.010521   0.006668  -0.009508
     25       0.031977   0.028203  -0.028019  -0.004872  -0.003965   0.003997
     26       0.004240   0.000782   0.000787  -0.031478  -0.019406   0.031783
     27       0.460404   0.511739   0.497702   0.025106  -0.055928   0.038613
     28      -0.061500  -0.060171  -0.044132   0.355309  -0.563482   0.388942
     29      -0.020200  -0.012385  -0.004008   0.110374  -0.177108   0.103971
     30      -0.474352   0.512361  -0.497531   0.024820  -0.055628  -0.038209
     31       0.061996  -0.059552   0.043470   0.355687  -0.564282  -0.388387
     32      -0.021407   0.013206  -0.004829  -0.110493   0.177303   0.103796
     33      -0.136019   0.126822   0.147315  -0.540783  -0.344220  -0.530266
     34      -0.472124   0.433827   0.443513   0.176187   0.101772   0.165802
     35      -0.028405   0.017537   0.013466   0.172099   0.109296   0.141430
     36       0.140259   0.125755  -0.146447  -0.541206  -0.344316   0.530366
     37       0.488503   0.433723  -0.443908   0.175576   0.101424  -0.165025
     38      -0.028107  -0.016398   0.012193  -0.172260  -0.109402   0.141500
                 30         31         32         33         34         35    
      0       0.000002  -0.000006  -0.002148   0.000150   0.000002   0.000001
      1      -0.000001  -0.000001  -0.001365   0.000338  -0.000003   0.000000
      2      -0.000162  -0.001882   0.000005  -0.000002   0.000036  -0.000140
      3      -0.002095  -0.032295   0.042043   0.026377  -0.031812   0.000906
      4      -0.033420  -0.363503   0.389454   0.317083  -0.377295   0.010944
      5      -0.054873   0.075282  -0.083882  -0.064522   0.072259  -0.037525
      6      -0.000959   0.025000  -0.027770  -0.020728   0.024193   0.000114
      7      -0.013068   0.285684  -0.300032  -0.244052   0.278243   0.001055
      8       0.032580  -0.062564   0.070686   0.057327  -0.061180  -0.001103
      9       0.002138   0.031688   0.041361   0.025817   0.031274  -0.000833
     10       0.033379   0.363313   0.389015   0.317116   0.378154  -0.010917
     11      -0.054811   0.075242   0.083776   0.064521   0.072413  -0.037445
     12       0.000887  -0.024501  -0.027224  -0.020299  -0.023773  -0.000111
     13       0.013061  -0.285553  -0.299708  -0.244102  -0.278898  -0.001057
     14       0.032541  -0.062525  -0.070605  -0.057331  -0.061326  -0.001100
     15      -0.021053   0.340568   0.304516  -0.369069  -0.363383  -0.010201
     16       0.006990  -0.114577  -0.094323   0.123709   0.123282   0.004334
     17       0.039249   0.076586   0.071334  -0.082519  -0.075744  -0.038558
     18      -0.009439  -0.267778  -0.232912   0.283858   0.268587  -0.001056
     19       0.003760   0.090356   0.076912  -0.096037  -0.090670   0.000333
     20      -0.023445  -0.063455  -0.059036   0.072120   0.063928  -0.001154
     21       0.021012  -0.340388   0.304511  -0.370176   0.363638   0.010301
     22      -0.007049   0.113478  -0.093392   0.122914  -0.122278  -0.004240
     23       0.039245   0.076416  -0.071238   0.082629  -0.075683  -0.038703
     24       0.009464   0.267650  -0.232933   0.284711  -0.268792   0.001056
     25      -0.003676  -0.089473   0.076183  -0.095411   0.089896  -0.000327
     26      -0.023437  -0.063314   0.058957  -0.072207   0.063869  -0.001159
     27       0.055317  -0.013115   0.000240   0.007228   0.007875  -0.012881
     28       0.553701  -0.115694   0.099657   0.093620  -0.041233  -0.154297
     29       0.140599   0.123258  -0.187316  -0.150009   0.117129   0.466563
     30      -0.054779   0.012671  -0.000269   0.006948  -0.008093   0.011913
     31      -0.553121   0.115758   0.099687   0.093766   0.041530   0.154017
     32       0.140426   0.123151   0.187106   0.150087   0.117515   0.465551
     33       0.374484   0.108601   0.070447  -0.104538  -0.035242   0.144631
     34      -0.117484  -0.034691  -0.035299   0.042313   0.024364  -0.059206
     35      -0.094728   0.122091   0.150524  -0.182707  -0.120101   0.479917
     36      -0.374416  -0.108605   0.070661  -0.104873   0.035272  -0.145845
     37       0.116885   0.033963  -0.034652   0.041708  -0.023962   0.057964
     38      -0.094723   0.121860  -0.150548   0.182900  -0.120099   0.481744
                 36         37         38    
      0      -0.000001   0.000173  -0.000107
      1       0.000001  -0.000168  -0.000169
      2       0.000011   0.000000  -0.000000
      3       0.000749  -0.000674  -0.000733
      4       0.009514  -0.009850  -0.018258
      5      -0.038449   0.024884   0.047048
      6       0.000217   0.000045  -0.000083
      7       0.002523   0.000435   0.000234
      8      -0.001248   0.000754   0.001511
      9      -0.000667  -0.000626  -0.000637
     10      -0.009433  -0.009918  -0.018304
     11      -0.038206  -0.025142  -0.047172
     12      -0.000212   0.000044  -0.000082
     13      -0.002523   0.000417   0.000230
     14      -0.001240  -0.000763  -0.001515
     15       0.008122   0.016695  -0.008447
     16      -0.003559  -0.007147   0.003897
     17       0.036995   0.047551  -0.024595
     18       0.002372  -0.000329  -0.000095
     19      -0.000816   0.000124  -0.000039
     20       0.001260   0.001530  -0.000830
     21      -0.008297   0.016668  -0.008459
     22       0.003502  -0.006958   0.003810
     23       0.037376  -0.047170   0.024519
     24      -0.002375  -0.000350  -0.000094
     25       0.000808   0.000134  -0.000041
     26       0.001272  -0.001517   0.000829
     27      -0.013359   0.007365   0.012533
     28      -0.157175   0.114699   0.217093
     29       0.482126  -0.304637  -0.583975
     30       0.012305   0.006819   0.011369
     31       0.156158   0.115816   0.217728
     32       0.479146   0.307867   0.585514
     33      -0.138175  -0.198829   0.102817
     34       0.056152   0.083845  -0.044166
     35      -0.465333  -0.588337   0.308575
     36       0.140352  -0.198136   0.102918
     37      -0.055353   0.081427  -0.043081
     38      -0.470038   0.583572  -0.307641


-----------
IR SPECTRUM
-----------

 Mode   freq       eps      Int      T**2         TX        TY        TZ
       cm**-1   L/(mol*cm) km/mol    a.u.
----------------------------------------------------------------------------
  8:     37.48   0.000000    0.00  0.000000  (-0.000230 -0.000181  0.000015)
  9:     50.30   0.001747    8.83  0.010839  ( 0.087398  0.056574 -0.000043)
 10:     78.75   0.000531    2.68  0.002103  (-0.000126 -0.000052  0.045857)
 11:     95.99   0.003127   15.80  0.010167  ( 0.000053 -0.000091  0.100832)
 12:     98.45   0.000060    0.31  0.000192  ( 0.007621 -0.011556  0.000257)
 13:    103.21   0.001472    7.44  0.004451  ( 0.000111 -0.000137 -0.066718)
 14:    122.72   0.000007    0.03  0.000017  (-0.000068  0.000050  0.004095)
 15:    167.58   0.000151    0.76  0.000281  (-0.000018  0.000017 -0.016763)
 16:    270.75   0.002784   14.07  0.003209  ( 0.047576  0.030743 -0.000016)
 17:    283.46   0.000000    0.00  0.000000  ( 0.000045 -0.000072  0.000357)
 18:    304.60   0.001980   10.01  0.002028  ( 0.024733 -0.037639  0.000018)
 19:    415.46   0.013109   66.25  0.009847  (-0.058853  0.079893 -0.000006)
 20:    481.06   0.008766   44.30  0.005686  (-0.059662 -0.046119  0.000017)
 21:    500.14   0.008102   40.94  0.005055  (-0.000105 -0.000060 -0.071099)
 22:    520.81   0.000137    0.69  0.000082  ( 0.000014  0.000000 -0.009056)
 23:    682.05   0.001403    7.09  0.000642  (-0.008207  0.023967  0.000157)
 24:    683.37   0.000230    1.16  0.000105  (-0.000221  0.000359 -0.010249)
 25:    731.08   0.015575   78.71  0.006648  ( 0.069643  0.042403 -0.000052)
 26:    790.85   0.000008    0.04  0.000003  ( 0.000016 -0.000005 -0.001781)
 27:   1196.42   0.025785  130.31  0.006726  ( 0.049651 -0.065272  0.000022)
 28:   1203.78   0.003030   15.31  0.000786  ( 0.006503  0.027264 -0.000034)
 29:   1231.19   0.018141   91.68  0.004598  ( 0.000023 -0.000021 -0.067809)
 30:   1242.77   0.000545    2.76  0.000137  ( 0.000007 -0.000043 -0.011702)
 31:   1769.44   0.101872  514.82  0.017967  (-0.000003 -0.000152 -0.134039)
 32:   1802.30   0.097632  493.39  0.016905  ( 0.095272  0.088476  0.000003)
 33:   1809.14   0.246101  1243.70  0.042451  (-0.124647  0.164055 -0.000078)
 34:   1859.05   0.000001    0.01  0.000000  (-0.000023  0.000175  0.000384)
 35:   2654.03   0.101967  515.30  0.011989  ( 0.000029  0.000046 -0.109496)
 36:   2662.54   0.000042    0.21  0.000005  ( 0.000083 -0.000139 -0.002210)
 37:   2668.45   0.006902   34.88  0.000807  (-0.018261  0.021764  0.000091)
 38:   2671.61   0.001253    6.33  0.000146  ( 0.001958  0.011936 -0.000149)

* The epsilon (eps) is given for a Dirac delta lineshape.
** The dipole moment derivative (T) already includes vibrational overlap.

The first frequency considered to be a vibration is 8
The total number of vibrations considered is 31


--------------------------
THERMOCHEMISTRY AT 298.15K
--------------------------

Temperature         ... 298.15 K
Pressure            ... 1.00 atm
Total Mass          ... 174.77 AMU

Throughout the following assumptions are being made:
  (1) The electronic state is orbitally nondegenerate
      but the spin degeneracy is treated
  (2) There are no thermally accessible electronically excited states
  (3) Hindered rotations indicated by low frequency modes are not
      treated as such but are treated as vibrations and this may
      cause some error
  (4) All equations used are the standard statistical mechanics
      equations for an ideal gas
  (5) All vibrations are strictly harmonic

freq.      37.48  E(vib)   ...       0.54 
freq.      50.30  E(vib)   ...       0.52 
freq.      78.75  E(vib)   ...       0.49 
freq.      95.99  E(vib)   ...       0.47 
freq.      98.45  E(vib)   ...       0.46 
freq.     103.21  E(vib)   ...       0.46 
freq.     122.72  E(vib)   ...       0.43 
freq.     167.58  E(vib)   ...       0.38 
freq.     270.75  E(vib)   ...       0.29 
freq.     283.46  E(vib)   ...       0.28 
freq.     304.60  E(vib)   ...       0.26 
freq.     415.46  E(vib)   ...       0.18 
freq.     481.06  E(vib)   ...       0.15 
freq.     500.14  E(vib)   ...       0.14 
freq.     520.81  E(vib)   ...       0.13 
freq.     682.05  E(vib)   ...       0.08 
freq.     683.37  E(vib)   ...       0.08 
freq.     731.08  E(vib)   ...       0.06 
freq.     790.85  E(vib)   ...       0.05 
freq.    1196.42  E(vib)   ...       0.01 
freq.    1203.78  E(vib)   ...       0.01 
freq.    1231.19  E(vib)   ...       0.01 
freq.    1242.77  E(vib)   ...       0.01 
freq.    1769.44  E(vib)   ...       0.00 
freq.    1802.30  E(vib)   ...       0.00 
freq.    1809.14  E(vib)   ...       0.00 
freq.    1859.05  E(vib)   ...       0.00 
freq.    2654.03  E(vib)   ...       0.00 
freq.    2662.54  E(vib)   ...       0.00 
freq.    2668.45  E(vib)   ...       0.00 
freq.    2671.61  E(vib)   ...       0.00 

------------
INNER ENERGY
------------

The inner energy is: U= E(el) + E(ZPE) + E(vib) + E(rot) + E(trans)
    E(el)   - is the total energy from the electronic structure calculation
              = E(kin-el) + E(nuc-el) + E(el-el) + E(nuc-nuc)
    E(ZPE)  - the the zero temperature vibrational energy from the frequency calculation
    E(vib)  - the the finite temperature correction to E(ZPE) due to population
              of excited vibrational states
    E(rot)  - is the rotational thermal energy
    E(trans)- is the translational thermal energy

Summary of contributions to the inner energy U:
Electronic energy                ...  -1963.82634383 Eh
Zero point energy                ...      0.06649704 Eh      41.73 kcal/mol
Thermal vibrational correction   ...      0.00875515 Eh       5.49 kcal/mol
Thermal rotational correction    ...      0.00141627 Eh       0.89 kcal/mol
Thermal translational correction ...      0.00141627 Eh       0.89 kcal/mol
-----------------------------------------------------------------------
Total thermal energy                  -1963.74825911 Eh


Summary of corrections to the electronic energy:
(perhaps to be used in another calculation)
Total thermal correction                  0.01158769 Eh       7.27 kcal/mol
Non-thermal (ZPE) correction              0.06649704 Eh      41.73 kcal/mol
-----------------------------------------------------------------------
Total correction                          0.07808473 Eh      49.00 kcal/mol


--------
ENTHALPY
--------

The enthalpy is H = U + kB*T
                kB is Boltzmann's constant
Total free energy                 ...  -1963.74825911 Eh 
Thermal Enthalpy correction       ...      0.00094421 Eh       0.59 kcal/mol
-----------------------------------------------------------------------
Total Enthalpy                    ...  -1963.74731490 Eh


Note: Only C1 symmetry has been detected, increase convergence thresholds 
      if your molecule has a higher symmetry. Symmetry factor of 1.0 is   
      used for the rotational entropy correction. 
 

Note: Rotational entropy computed according to Herzberg 
Infrared and Raman Spectra, Chapter V,1, Van Nostrand Reinhold, 1945 
Point Group:  C1, Symmetry Number:   1  
Rotational constants in cm-1:     0.051294     0.031251     0.030132 

Vibrational entropy computed according to the QRRHO of S. Grimme
Chem.Eur.J. 2012 18 9955


-------
ENTROPY
-------

The entropy contributions are T*S = T*(S(el)+S(vib)+S(rot)+S(trans))
     S(el)   - electronic entropy
     S(vib)  - vibrational entropy
     S(rot)  - rotational entropy
     S(trans)- translational entropy
The entropies will be listed as multiplied by the temperature to get
units of energy

Electronic entropy                ...      0.00103729 Eh      0.65 kcal/mol
Vibrational entropy               ...      0.01632841 Eh     10.25 kcal/mol
Rotational entropy                ...      0.01420247 Eh      8.91 kcal/mol
Translational entropy             ...      0.01966196 Eh     12.34 kcal/mol
-----------------------------------------------------------------------
Final entropy term                ...      0.05123014 Eh     32.15 kcal/mol

In case the symmetry of your molecule has not been determined correctly
or in case you have a reason to use a different symmetry number we print 
out the resulting rotational entropy values for sn=1,12 :
 --------------------------------------------------------
|  sn= 1 | S(rot)=       0.01420247 Eh      8.91 kcal/mol|
|  sn= 2 | S(rot)=       0.01354802 Eh      8.50 kcal/mol|
|  sn= 3 | S(rot)=       0.01316518 Eh      8.26 kcal/mol|
|  sn= 4 | S(rot)=       0.01289356 Eh      8.09 kcal/mol|
|  sn= 5 | S(rot)=       0.01268287 Eh      7.96 kcal/mol|
|  sn= 6 | S(rot)=       0.01251073 Eh      7.85 kcal/mol|
|  sn= 7 | S(rot)=       0.01236518 Eh      7.76 kcal/mol|
|  sn= 8 | S(rot)=       0.01223910 Eh      7.68 kcal/mol|
|  sn= 9 | S(rot)=       0.01212790 Eh      7.61 kcal/mol|
|  sn=10 | S(rot)=       0.01202842 Eh      7.55 kcal/mol|
|  sn=11 | S(rot)=       0.01193843 Eh      7.49 kcal/mol|
|  sn=12 | S(rot)=       0.01185627 Eh      7.44 kcal/mol|
 --------------------------------------------------------


-------------------
GIBBS FREE ENERGY
-------------------

The Gibbs free energy is G = H - T*S

Total enthalpy                    ...  -1963.74731490 Eh 
Total entropy correction          ...     -0.05123014 Eh    -32.15 kcal/mol
-----------------------------------------------------------------------
Final Gibbs free energy         ...  -1963.79854504 Eh

For completeness - the Gibbs free energy minus the electronic energy
G-E(el)                           ...      0.02779880 Eh     17.44 kcal/mol


Timings for individual modules:

Sum of individual times         ...     1892.399 sec (=  31.540 min)
GTO integral calculation        ...       12.373 sec (=   0.206 min)   0.7 %
SCF iterations                  ...     1268.859 sec (=  21.148 min)  67.1 %
SCF Gradient evaluation         ...      189.338 sec (=   3.156 min)  10.0 %
Geometry relaxation             ...        0.253 sec (=   0.004 min)   0.0 %
Analytical frequency calculation...      421.576 sec (=   7.026 min)  22.3 %
                             ****ORCA TERMINATED NORMALLY****
TOTAL RUN TIME: 0 days 0 hours 31 minutes 39 seconds 489 msec
