
                                 *****************
                                 * O   R   C   A *
                                 *****************

                                            #,                                       
                                            ###                                      
                                            ####                                     
                                            #####                                    
                                            ######                                   
                                           ########,                                 
                                     ,,################,,,,,                         
                               ,,#################################,,                 
                          ,,##########################################,,             
                       ,#########################################, ''#####,          
                    ,#############################################,,   '####,        
                  ,##################################################,,,,####,       
                ,###########''''           ''''###############################       
              ,#####''   ,,,,##########,,,,          '''####'''          '####       
            ,##' ,,,,###########################,,,                        '##       
           ' ,,###''''                  '''############,,,                           
         ,,##''                                '''############,,,,        ,,,,,,###''
      ,#''                                            '''#######################'''  
     '                                                          ''''####''''         
             ,#######,   #######,   ,#######,      ##                                
            ,#'     '#,  ##    ##  ,#'     '#,    #''#        ######   ,####,        
            ##       ##  ##   ,#'  ##            #'  '#       #        #'  '#        
            ##       ##  #######   ##           ,######,      #####,   #    #        
            '#,     ,#'  ##    ##  '#,     ,#' ,#      #,         ##   #,  ,#        
             '#######'   ##     ##  '#######'  #'      '#     #####' # '####'        



                  #######################################################
                  #                        -***-                        #
                  #          Department of theory and spectroscopy      #
                  #    Directorship and core code : Frank Neese         #
                  #        Max Planck Institute fuer Kohlenforschung    #
                  #                Kaiser Wilhelm Platz 1               #
                  #                 D-45470 Muelheim/Ruhr               #
                  #                      Germany                        #
                  #                                                     #
                  #                  All rights reserved                #
                  #                        -***-                        #
                  #######################################################


                         Program Version 5.0.4 -  RELEASE  -


 With contributions from (in alphabetic order):
   Daniel Aravena         : Magnetic Suceptibility
   Michael Atanasov       : Ab Initio Ligand Field Theory (pilot matlab implementation)
   Alexander A. Auer      : GIAO ZORA, VPT2 properties, NMR spectrum
   Ute Becker             : Parallelization
   Giovanni Bistoni       : ED, misc. LED, open-shell LED, HFLD
   Martin Brehm           : Molecular dynamics
   Dmytro Bykov           : SCF Hessian
   Vijay G. Chilkuri      : MRCI spin determinant printing, contributions to CSF-ICE
   Dipayan Datta          : RHF DLPNO-CCSD density
   Achintya Kumar Dutta   : EOM-CC, STEOM-CC
   Dmitry Ganyushin       : Spin-Orbit,Spin-Spin,Magnetic field MRCI
   Miquel Garcia          : C-PCM and meta-GGA Hessian, CC/C-PCM, Gaussian charge scheme
   Yang Guo               : DLPNO-NEVPT2, F12-NEVPT2, CIM, IAO-localization
   Andreas Hansen         : Spin unrestricted coupled pair/coupled cluster methods
   Benjamin Helmich-Paris : MC-RPA, TRAH-SCF, COSX integrals
   Lee Huntington         : MR-EOM, pCC
   Robert Izsak           : Overlap fitted RIJCOSX, COSX-SCS-MP3, EOM
   Marcus Kettner         : VPT2
   Christian Kollmar      : KDIIS, OOCD, Brueckner-CCSD(T), CCSD density, CASPT2, CASPT2-K
   Simone Kossmann        : Meta GGA functionals, TD-DFT gradient, OOMP2, MP2 Hessian
   Martin Krupicka        : Initial AUTO-CI
   Lucas Lang             : DCDCAS
   Marvin Lechner         : AUTO-CI (C++ implementation), FIC-MRCC
   Dagmar Lenk            : GEPOL surface, SMD
   Dimitrios Liakos       : Extrapolation schemes; Compound Job, initial MDCI parallelization
   Dimitrios Manganas     : Further ROCIS development; embedding schemes
   Dimitrios Pantazis     : SARC Basis sets
   Anastasios Papadopoulos: AUTO-CI, single reference methods and gradients
   Taras Petrenko         : DFT Hessian,TD-DFT gradient, ASA, ECA, R-Raman, ABS, FL, XAS/XES, NRVS
   Peter Pinski           : DLPNO-MP2, DLPNO-MP2 Gradient
   Christoph Reimann      : Effective Core Potentials
   Marius Retegan         : Local ZFS, SOC
   Christoph Riplinger    : Optimizer, TS searches, QM/MM, DLPNO-CCSD(T), (RO)-DLPNO pert. Triples
   Tobias Risthaus        : Range-separated hybrids, TD-DFT gradient, RPA, STAB
   Michael Roemelt        : Original ROCIS implementation
   Masaaki Saitow         : Open-shell DLPNO-CCSD energy and density
   Barbara Sandhoefer     : DKH picture change effects
   Avijit Sen             : IP-ROCIS
   Kantharuban Sivalingam : CASSCF convergence, NEVPT2, FIC-MRCI
   Bernardo de Souza      : ESD, SOC TD-DFT
   Georgi Stoychev        : AutoAux, RI-MP2 NMR, DLPNO-MP2 response
   Willem Van den Heuvel  : Paramagnetic NMR
   Boris Wezisla          : Elementary symmetry handling
   Frank Wennmohs         : Technical directorship


 We gratefully acknowledge several colleagues who have allowed us to
 interface, adapt or use parts of their codes:
   Stefan Grimme, W. Hujo, H. Kruse, P. Pracht,  : VdW corrections, initial TS optimization,
                  C. Bannwarth, S. Ehlert          DFT functionals, gCP, sTDA/sTD-DF
   Ed Valeev, F. Pavosevic, A. Kumar             : LibInt (2-el integral package), F12 methods
   Garnet Chan, S. Sharma, J. Yang, R. Olivares  : DMRG
   Ulf Ekstrom                                   : XCFun DFT Library
   Mihaly Kallay                                 : mrcc  (arbitrary order and MRCC methods)
   Jiri Pittner, Ondrej Demel                    : Mk-CCSD
   Frank Weinhold                                : gennbo (NPA and NBO analysis)
   Christopher J. Cramer and Donald G. Truhlar   : smd solvation model
   Lars Goerigk                                  : TD-DFT with DH, B97 family of functionals
   V. Asgeirsson, H. Jonsson                     : NEB implementation
   FAccTs GmbH                                   : IRC, NEB, NEB-TS, DLPNO-Multilevel, CI-OPT
                                                   MM, QMMM, 2- and 3-layer-ONIOM, Crystal-QMMM,
                                                   LR-CPCM, SF, NACMEs, symmetry and pop. for TD-DFT,
                                                   nearIR, NL-DFT gradient (VV10), updates on ESD,
                                                   ML-optimized integration grids
   S Lehtola, MJT Oliveira, MAL Marques          : LibXC Library
   Liviu Ungur et al                             : ANISO software


 Your calculation uses the libint2 library for the computation of 2-el integrals
 For citations please refer to: http://libint.valeyev.net

 Your ORCA version has been built with support for libXC version: 5.1.0
 For citations please refer to: https://tddft.org/programs/libxc/

 This ORCA versions uses:
   CBLAS   interface :  Fast vector & matrix operations
   LAPACKE interface :  Fast linear algebra routines
   SCALAPACK package :  Parallel linear algebra routines
   Shared memory     :  Shared parallel matrices
   BLAS/LAPACK       :  OpenBLAS 0.3.15  USE64BITINT DYNAMIC_ARCH NO_AFFINITY Haswell SINGLE_THREADED
        Core in use  :  Haswell
   Copyright (c) 2011-2014, The OpenBLAS Project


================================================================================

cite the ECPs for Cd [Def2-ECP] as follows:
Ce-Yb(ecp-28): M. Dolg, H. Stoll, H.Preuss, J. Chem. Phys., 1989, 90, 1730-1734.
Y-Cd(ecp-28), Hf-Hg(ecp-46): D. Andrae,U. Haeussermann, M. Dolg, H. Stoll, H. Preuss, Theor. Chim. Acta, 1990, 77, 123-141.
In-Sb(ecp-28), Tl-Bi(ecp-46): B. Metz, H. Stoll, M. Dolg, J. Chem. Phys., 2000, 113, 2563-2569.
Te-Xe(ecp-28), Po-Rn(ecp-46): K. A. Peterson, D. Figgen, E. Goll, H. Stoll, M. Dolg, J. Chem. Phys., 2003, 119, 11113-11123.
Rb(ecp-28), Cs(ecp-46): T. Leininger, A. Nicklass, W. Kuechle, H. Stoll, M. Dolg, A. Bergner, Chem. Phys. Lett., 1996, 255, 274-280.
Sr(ecp-28), Ba(ecp-46): M. Kaupp, P. V. Schleyer, H. Stoll and H. Preuss, J. Chem. Phys., 1991, 94, 1360-1366.
La(ecp-46): M. Dolg, H. Stoll, A. Savin, H. Preuss, Theor. Chim. Acta, 1989, 75, 173-194.
Lu(ecp-28): X. Cao, M. Dolg, J. Chem. Phys., 2001, 115, 7348-7355.

ECP parameters for Cd [Def2-ECP] have been obtained from:
TURBOMOLE (7.0.2)

----- Orbital basis set information -----
Your calculation utilizes the basis: def2-TZVP
   F. Weigend and R. Ahlrichs, Phys. Chem. Chem. Phys. 7, 3297 (2005).

----- AuxJ basis set information -----
Your calculation utilizes the auxiliary basis: def2/J
   F. Weigend, Phys. Chem. Chem. Phys. 8, 1057 (2006).

================================================================================
                                        WARNINGS
                       Please study these warnings very carefully!
================================================================================


WARNING: Geometry Optimization
  ===> : Switching off AutoStart
         For restart on a previous wavefunction, please use MOREAD

INFO   : the flag for use of the SHARK integral package has been found!

================================================================================
                                       INPUT FILE
================================================================================
NAME = CdCl5.inp
|  1> # avogadro generated ORCA file
|  2> # Cl5Cd | Geometry Optimization | B3LYP/def2-TZVP
|  3> # [CdCl5]3- 
|  4> #
|  5> ! Opt B3LYP def2-TZVP FREQ
|  6> 
|  7> %maxcore 4096
|  8> 
|  9> %pal
| 10>    nprocs 4
| 11> end
| 12> 
| 13> * xyz -3 1
| 14>    Cd    -0.000000    0.000000    0.000000
| 15>    Cl    -2.270000    0.000000   -0.000000
| 16>    Cl     2.270000    0.000000    0.000000
| 17>    Cl     0.000000    2.270000    0.000000
| 18>    Cl     0.000000   -1.135000    1.965900
| 19>    Cl     0.000000   -1.135000   -1.965900
| 20> *
| 21> 
| 22> 
| 23> 
| 24>                          ****END OF INPUT****
================================================================================

                       *****************************
                       * Geometry Optimization Run *
                       *****************************

Geometry optimization settings:
Update method            Update   .... BFGS
Choice of coordinates    CoordSys .... Z-matrix Internals
Initial Hessian          InHess   .... Almoef's Model

Convergence Tolerances:
Energy Change            TolE     ....  5.0000e-06 Eh
Max. Gradient            TolMAXG  ....  3.0000e-04 Eh/bohr
RMS Gradient             TolRMSG  ....  1.0000e-04 Eh/bohr
Max. Displacement        TolMAXD  ....  4.0000e-03 bohr
RMS Displacement         TolRMSD  ....  2.0000e-03 bohr
Strict Convergence                ....  False
------------------------------------------------------------------------------
                        ORCA OPTIMIZATION COORDINATE SETUP
------------------------------------------------------------------------------

The optimization will be done in new redundant internal coordinates
Making redundant internal coordinates   ...  (new redundants) done
Evaluating the initial hessian          ...  (Almloef) done
Evaluating the coordinates              ...  done
Calculating the B-matrix                .... done
Calculating the G-matrix                .... done
Diagonalizing the G-matrix              .... done
The first mode is                       ....    2
The number of degrees of freedom        ....   12

    -----------------------------------------------------------------
                    Redundant Internal Coordinates


    -----------------------------------------------------------------
         Definition                    Initial Value    Approx d2E/dq
    -----------------------------------------------------------------
      1. B(Cl  1,Cd  0)                  2.2700         0.559597   
      2. B(Cl  2,Cd  0)                  2.2700         0.559597   
      3. B(Cl  3,Cd  0)                  2.2700         0.559597   
      4. B(Cl  4,Cd  0)                  2.2700         0.559557   
      5. B(Cl  5,Cd  0)                  2.2700         0.559557   
      6. A(Cl  2,Cd  0,Cl  3)           90.0000         0.565527   
      7. A(Cl  1,Cd  0,Cl  4)           90.0000         0.565519   
      8. A(Cl  2,Cd  0,Cl  4)           90.0000         0.565519   
      9. A(Cl  3,Cd  0,Cl  4)          119.9997         0.565519   
     10. A(Cl  1,Cd  0,Cl  5)           90.0000         0.565519   
     11. A(Cl  2,Cd  0,Cl  5)           90.0000         0.565519   
     12. A(Cl  3,Cd  0,Cl  5)          119.9997         0.565519   
     13. A(Cl  4,Cd  0,Cl  5)          120.0006         0.565512   
     14. A(Cl  1,Cd  0,Cl  3)           90.0000         0.565527   
    -----------------------------------------------------------------

Number of atoms                         .... 6
Number of degrees of freedom            .... 14

         *************************************************************
         *                GEOMETRY OPTIMIZATION CYCLE   1            *
         *************************************************************
---------------------------------
CARTESIAN COORDINATES (ANGSTROEM)
---------------------------------
  Cd    -0.000000    0.000000    0.000000
  Cl    -2.270000    0.000000   -0.000000
  Cl     2.270000    0.000000    0.000000
  Cl     0.000000    2.270000    0.000000
  Cl     0.000000   -1.135000    1.965900
  Cl     0.000000   -1.135000   -1.965900

----------------------------
CARTESIAN COORDINATES (A.U.)
----------------------------
  NO LB      ZA    FRAG     MASS         X           Y           Z
   0 Cd   20.0000*   0   112.410   -0.000000    0.000000    0.000000
   1 Cl   17.0000    0    35.453   -4.289678    0.000000   -0.000000
   2 Cl   17.0000    0    35.453    4.289678    0.000000    0.000000
   3 Cl   17.0000    0    35.453    0.000000    4.289678    0.000000
   4 Cl   17.0000    0    35.453    0.000000   -2.144839    3.715013
   5 Cl   17.0000    0    35.453    0.000000   -2.144839   -3.715013
* core charge reduced due to ECP

--------------------------------
INTERNAL COORDINATES (ANGSTROEM)
--------------------------------
 Cd     0   0   0     0.000000000000     0.00000000     0.00000000
 Cl     1   0   0     2.270000000000     0.00000000     0.00000000
 Cl     1   2   0     2.270000000000   180.00000000     0.00000000
 Cl     1   2   3     2.270000000000    90.00000000     0.00000000
 Cl     1   2   4     2.270019341327    90.00000000   119.99971815
 Cl     1   2   4     2.270019341327    90.00000000   240.00028185

---------------------------
INTERNAL COORDINATES (A.U.)
---------------------------
 Cd     0   0   0     0.000000000000     0.00000000     0.00000000
 Cl     1   0   0     4.289678324001     0.00000000     0.00000000
 Cl     1   2   0     4.289678324001   180.00000000     0.00000000
 Cl     1   2   3     4.289678324001    90.00000000     0.00000000
 Cl     1   2   4     4.289714873813    90.00000000   119.99971815
 Cl     1   2   4     4.289714873813    90.00000000   240.00028185

---------------------
BASIS SET INFORMATION
---------------------
There are 2 groups of distinct atoms

 Group   1 Type Cd  : 7s7p6d1f contracted to 6s4p3d1f pattern {211111/4111/411/1}
 Group   2 Type Cl  : 14s9p3d1f contracted to 5s5p2d1f pattern {73211/51111/21/1}

Atom   0Cd   basis set group =>   1
Atom   1Cl   basis set group =>   2
Atom   2Cl   basis set group =>   2
Atom   3Cl   basis set group =>   2
Atom   4Cl   basis set group =>   2
Atom   5Cl   basis set group =>   2
---------------------------------
AUXILIARY/J BASIS SET INFORMATION
---------------------------------
There are 2 groups of distinct atoms

 Group   1 Type Cd  : 11s5p5d3f3g contracted to 8s5p5d2f3g pattern {41111111/11111/11111/21/111}
 Group   2 Type Cl  : 14s5p5d2f1g contracted to 8s4p3d1f1g pattern {71111111/2111/311/2/1}

Atom   0Cd   basis set group =>   1
Atom   1Cl   basis set group =>   2
Atom   2Cl   basis set group =>   2
Atom   3Cl   basis set group =>   2
Atom   4Cl   basis set group =>   2
Atom   5Cl   basis set group =>   2
-------------------------
ECP PARAMETER INFORMATION
-------------------------

 Group 1, Type Cd ECP Def2-ECP (replacing 28 core electrons, lmax=3)

Atom   0Cd   ECP group =>   1



           ************************************************************
           *        Program running with 4 parallel MPI-processes     *
           *              working on a common directory               *
           ************************************************************
------------------------------------------------------------------------------
                           ORCA GTO INTEGRAL CALCULATION
                           -- RI-GTO INTEGRALS CHOSEN --
------------------------------------------------------------------------------
------------------------------------------------------------------------------
                   ___                                                        
                  /   \      - P O W E R E D   B Y -                         
                 /     \                                                     
                 |  |  |   _    _      __       _____    __    __             
                 |  |  |  | |  | |    /  \     |  _  \  |  |  /  |          
                  \  \/   | |  | |   /    \    | | | |  |  | /  /          
                 / \  \   | |__| |  /  /\  \   | |_| |  |  |/  /          
                |  |  |   |  __  | /  /__\  \  |    /   |      \           
                |  |  |   | |  | | |   __   |  |    \   |  |\   \          
                \     /   | |  | | |  |  |  |  | |\  \  |  | \   \       
                 \___/    |_|  |_| |__|  |__|  |_| \__\ |__|  \__/        
                                                                              
                      - O R C A' S   B I G   F R I E N D -                    
                                      &                                       
                       - I N T E G R A L  F E E D E R -                       
                                                                              
 v1 FN, 2020, v2 2021                                                         
------------------------------------------------------------------------------


Reading SHARK input file CdCl5.SHARKINP.tmp ... ok
----------------------
SHARK INTEGRAL PACKAGE
----------------------

Number of atoms                             ...      6
Number of basis functions                   ...    225
Number of shells                            ...     79
Maximum angular momentum                    ...      3
Integral batch strategy                     ... SHARK/LIBINT Hybrid
RI-J (if used) integral strategy            ... SPLIT-RIJ (Revised 2003 algorithm where possible)
Printlevel                                  ...      1
Contraction scheme used                     ... SEGMENTED contraction
Coulomb Range Separation                    ... NOT USED
Exchange Range Separation                   ... NOT USED
Finite Nucleus Model                        ... NOT USED
Auxiliary Coulomb fitting basis             ... AVAILABLE
   # of basis functions in Aux-J            ...    344
   # of shells in Aux-J                     ...    108
   Maximum angular momentum in Aux-J        ...      4
Auxiliary J/K fitting basis                 ... NOT available
Auxiliary Correlation fitting basis         ... NOT available
Auxiliary 'external' fitting basis          ... NOT available
Integral threshold                          ...     2.500000e-11
Primitive cut-off                           ...     2.500000e-12
Primitive pair pre-selection threshold      ...     2.500000e-12

Calculating pre-screening integrals         ... done (  0.0 sec) Dimension = 79
Organizing shell pair data                  ... done (  0.1 sec)
Shell pair information
Total number of shell pairs                 ...      3160
Shell pairs after pre-screening             ...      2653
Total number of primitive shell pairs       ...     12439
Primitive shell pairs kept                  ...      7073
          la=0 lb=0:    359 shell pairs
          la=1 lb=0:    705 shell pairs
          la=1 lb=1:    366 shell pairs
          la=2 lb=0:    355 shell pairs
          la=2 lb=1:    347 shell pairs
          la=2 lb=2:     90 shell pairs
          la=3 lb=0:    168 shell pairs
          la=3 lb=1:    164 shell pairs
          la=3 lb=2:     78 shell pairs
          la=3 lb=3:     21 shell pairs

Calculating one electron integrals          ... done (  0.0 sec)
Calculating ECP integrals                   ... done (  0.1 sec)
Calculating RI/J V-Matrix + Cholesky decomp.... done (  0.0 sec)
Calculating Nuclear repulsion               ... done (  0.0 sec) ENN=    832.503850579633 Eh

SHARK setup successfully completed in   0.3 seconds

Maximum memory used throughout the entire GTOINT-calculation: 18.0 MB


           ************************************************************
           *        Program running with 4 parallel MPI-processes     *
           *              working on a common directory               *
           ************************************************************
-------------------------------------------------------------------------------
                                 ORCA SCF
-------------------------------------------------------------------------------

------------
SCF SETTINGS
------------
Hamiltonian:
 Density Functional     Method          .... DFT(GTOs)
 Exchange Functional    Exchange        .... B88
   X-Alpha parameter    XAlpha          ....  0.666667
   Becke's b parameter  XBeta           ....  0.004200
 Correlation Functional Correlation     .... LYP
 LDA part of GGA corr.  LDAOpt          .... VWN-5
 Gradients option       PostSCFGGA      .... off
 Hybrid DFT is turned on
   Fraction HF Exchange ScalHFX         ....  0.200000
   Scaling of DF-GGA-X  ScalDFX         ....  0.720000
   Scaling of DF-GGA-C  ScalDFC         ....  0.810000
   Scaling of DF-LDA-C  ScalLDAC        ....  1.000000
   Perturbative correction              ....  0.000000
   Density functional embedding theory  .... OFF
   NL short-range parameter             ....  4.800000
 RI-approximation to the Coulomb term is turned on
   Number of AuxJ basis functions       .... 344
   RIJ-COSX (HFX calculated with COS-X)).... on


General Settings:
 Integral files         IntName         .... CdCl5
 Hartree-Fock type      HFTyp           .... RHF
 Total Charge           Charge          ....   -3
 Multiplicity           Mult            ....    1
 Number of Electrons    NEL             ....  108
 Basis Dimension        Dim             ....  225
 Nuclear Repulsion      ENuc            ....    832.5038505796 Eh

Convergence Acceleration:
 DIIS                   CNVDIIS         .... on
   Start iteration      DIISMaxIt       ....    12
   Startup error        DIISStart       ....  0.200000
   # of expansion vecs  DIISMaxEq       ....     5
   Bias factor          DIISBfac        ....   1.050
   Max. coefficient     DIISMaxC        ....  10.000
 Trust-Rad. Augm. Hess. CNVTRAH         .... auto
   Auto Start mean grad. ratio tolernc. ....  1.125000
   Auto Start start iteration           ....    20
   Auto Start num. interpolation iter.  ....    10
   Max. Number of Micro iterations      ....    16
   Max. Number of Macro iterations      .... Maxiter - #DIIS iter
   Number of Davidson start vectors     ....     2
   Converg. threshold I  (grad. norm)   ....   1.000e-05
   Converg. threshold II (energy diff.) ....   1.000e-08
   Grad. Scal. Fac. for Micro threshold ....   0.100
   Minimum threshold for Micro iter.    ....   0.010
   NR start threshold (gradient norm)   ....   0.001
   Initial trust radius                 ....   0.400
   Minimum AH scaling param. (alpha)    ....   1.000
   Maximum AH scaling param. (alpha)    .... 1000.000
   Orbital update algorithm             .... Taylor
   White noise on init. David. guess    .... on
   Maximum white noise                  ....   0.010
   Quad. conv. algorithm                .... NR
 SOSCF                  CNVSOSCF        .... off
 Level Shifting         CNVShift        .... on
   Level shift para.    LevelShift      ....    0.2500
   Turn off err/grad.   ShiftErr        ....    0.0010
 Zerner damping         CNVZerner       .... off
 Static damping         CNVDamp         .... on
   Fraction old density DampFac         ....    0.7000
   Max. Damping (<1)    DampMax         ....    0.9800
   Min. Damping (>=0)   DampMin         ....    0.0000
   Turn off err/grad.   DampErr         ....    0.1000
 Fernandez-Rico         CNVRico         .... off

SCF Procedure:
 Maximum # iterations   MaxIter         ....   125
 SCF integral mode      SCFMode         .... Direct
   Integral package                     .... SHARK and LIBINT hybrid scheme
 Reset frequency        DirectResetFreq ....    20
 Integral Threshold     Thresh          ....  2.500e-11 Eh
 Primitive CutOff       TCut            ....  2.500e-12 Eh

Convergence Tolerance:
 Convergence Check Mode ConvCheckMode   .... Total+1el-Energy
 Convergence forced     ConvForced      .... 0
 Energy Change          TolE            ....  1.000e-08 Eh
 1-El. energy change                    ....  1.000e-05 Eh
 DIIS Error             TolErr          ....  5.000e-07


Diagonalization of the overlap matrix:
Smallest eigenvalue                        ... 7.751e-03
Time for diagonalization                   ...    0.006 sec
Threshold for overlap eigenvalues          ... 1.000e-08
Number of eigenvalues below threshold      ... 0
Time for construction of square roots      ...    0.003 sec
Total time needed                          ...    0.010 sec

Time for model grid setup =    0.047 sec

------------------------------
INITIAL GUESS: MODEL POTENTIAL
------------------------------
Loading Hartree-Fock densities                     ... done
  calling /home/io/Chem/orca/orca CdCl5_atom48.inp > CdCl5_atom48.out in order to generate an atomic fitting density for atom 0 (Cd with ECP) on-the-fly... 
    atom 0 (Cd), assumed electronic state with S=1: 1s2 2s2 2p6 3s2 3p6 4s2 3d10 4p6 5s2 4d10           ... done
Calculating cut-offs                               ... done
Initializing the effective Hamiltonian             ... done
Setting up the integral package (SHARK)            ... done
Starting the Coulomb interaction                   ... done (   0.0 sec)
Reading the grid                                   ... done
Mapping shells                                     ... done
Starting the XC term evaluation                    ... done (   0.0 sec)
  promolecular density results
     # of electrons  =    133.000804161
     EX              =   -286.647636253
     EC              =     -5.999437551
     EX+EC           =   -292.647073803
Transforming the Hamiltonian                       ... done (   0.0 sec)
Diagonalizing the Hamiltonian                      ... done (   0.0 sec)
Back transforming the eigenvectors                 ... done (   0.0 sec)
Now organizing SCF variables                       ... done
                      ------------------
                      INITIAL GUESS DONE (   1.6 sec)
                      ------------------
-------------------
DFT GRID GENERATION
-------------------

General Integration Accuracy     IntAcc      ... 4.388
Radial Grid Type                 RadialGrid  ... OptM3 with GC (2021)
Angular Grid (max. ang.)         AngularGrid ... 4 (Lebedev-302)
Angular grid pruning method      GridPruning ... 4 (adaptive)
Weight generation scheme         WeightScheme... Becke
Basis function cutoff            BFCut       ... 1.0000e-11
Integration weight cutoff        WCut        ... 1.0000e-14
Angular grids for H and He will be reduced by one unit
Partially contracted basis set               ... off
Rotationally invariant grid construction     ... off

Total number of grid points                  ...    48434
Total number of batches                      ...      759
Average number of points per batch           ...       63
Average number of grid points per atom       ...     8072
Time for grid setup =    0.259 sec

--------------------
COSX GRID GENERATION
--------------------

GRIDX 1
-------
General Integration Accuracy     IntAcc      ... 3.816
Radial Grid Type                 RadialGrid  ... OptM3 with GC (2021)
Angular Grid (max. ang.)         AngularGrid ... 1 (Lebedev-50)
Angular grid pruning method      GridPruning ... 4 (adaptive)
Weight generation scheme         WeightScheme... Becke
Basis function cutoff            BFCut       ... 1.0000e-11
Integration weight cutoff        WCut        ... 1.0000e-14
Angular grids for H and He will be reduced by one unit
Partially contracted basis set               ... on
Rotationally invariant grid construction     ... off

Total number of grid points                  ...     5388
Total number of batches                      ...       86
Average number of points per batch           ...       62
Average number of grid points per atom       ...      898
UseSFitting                                  ... on

GRIDX 2
-------
General Integration Accuracy     IntAcc      ... 4.020
Radial Grid Type                 RadialGrid  ... OptM3 with GC (2021)
Angular Grid (max. ang.)         AngularGrid ... 2 (Lebedev-110)
Angular grid pruning method      GridPruning ... 4 (adaptive)
Weight generation scheme         WeightScheme... Becke
Basis function cutoff            BFCut       ... 1.0000e-11
Integration weight cutoff        WCut        ... 1.0000e-14
Angular grids for H and He will be reduced by one unit
Partially contracted basis set               ... on
Rotationally invariant grid construction     ... off

Total number of grid points                  ...    12859
Total number of batches                      ...      204
Average number of points per batch           ...       63
Average number of grid points per atom       ...     2143
UseSFitting                                  ... on

GRIDX 3
-------
General Integration Accuracy     IntAcc      ... 4.338
Radial Grid Type                 RadialGrid  ... OptM3 with GC (2021)
Angular Grid (max. ang.)         AngularGrid ... 3 (Lebedev-194)
Angular grid pruning method      GridPruning ... 4 (adaptive)
Weight generation scheme         WeightScheme... Becke
Basis function cutoff            BFCut       ... 1.0000e-11
Integration weight cutoff        WCut        ... 1.0000e-14
Angular grids for H and He will be reduced by one unit
Partially contracted basis set               ... on
Rotationally invariant grid construction     ... off

Total number of grid points                  ...    30994
Total number of batches                      ...      487
Average number of points per batch           ...       63
Average number of grid points per atom       ...     5166
UseSFitting                                  ... on

Time for X-Grid setup             =    0.200 sec

--------------
SCF ITERATIONS
--------------
ITER       Energy         Delta-E        Max-DP      RMS-DP      [F,P]     Damp
               ***  Starting incremental Fock matrix formation  ***
  0  -2468.2566040725   0.000000000000 0.08548462  0.00207664  0.4856519 0.7000
  1  -2468.3585705614  -0.101966488902 0.07515067  0.00162069  0.3352895 0.7000
  2  -2468.4059065308  -0.047335969395 0.04086203  0.00088534  0.2316911 0.7000
                               ***Turning on DIIS***
  3  -2468.4316906951  -0.025784164335 0.01730083  0.00042028  0.1611966 0.7000
  4  -2468.4491755306  -0.017484835480 0.00763481  0.00018486  0.1126011 0.7000
  5  -2468.4615590139  -0.012383483321 0.01880523  0.00036399  0.0788430 0.0000
  6  -2468.4904331764  -0.028874162500 0.00501267  0.00008742  0.0022106 0.0000
  7  -2468.4904778627  -0.000044686218 0.00082602  0.00001874  0.0007604 0.0000
               *** Restarting incremental Fock matrix formation ***
                                   *** Resetting DIIS ***
  8  -2468.4905663909  -0.000088528252 0.00022752  0.00000578  0.0001513 0.0000
  9  -2468.4905664281  -0.000000037201 0.00012474  0.00000258  0.0001726 0.0000
 10  -2468.4905664950  -0.000000066917 0.00003492  0.00000045  0.0000325 0.0000
 11  -2468.4905665075  -0.000000012456 0.00001597  0.00000017  0.0000081 0.0000
 12  -2468.4905664953   0.000000012197 0.00000153  0.00000002  0.0000010 0.0000
                            ***DIIS convergence achieved***

               *****************************************************
               *                     SUCCESS                       *
               *           SCF CONVERGED AFTER  13 CYCLES          *
               *****************************************************

Old exchange energy                            =    -30.665385870 Eh
New exchange energy                            =    -30.665344112 Eh
Exchange energy change after final integration =      0.000041757 Eh
Total energy after final integration           =  -2468.490524722 Eh
Final COS-X integration done in                =     1.678 sec

----------------
TOTAL SCF ENERGY
----------------

Total Energy       :        -2468.49052472 Eh          -67171.04209 eV

Components:
Nuclear Repulsion  :          832.50385058 Eh           22653.58146 eV
Electronic Energy  :        -3300.99437530 Eh          -89824.62355 eV
One Electron Energy:        -5194.95950324 Eh         -141362.03479 eV
Two Electron Energy:         1893.96512794 Eh           51537.41124 eV
Max COSX asymmetry :            0.00001133 Eh               0.00031 eV

Virial components:
Potential Energy   :        -4832.71218801 Eh         -131504.78421 eV
Kinetic Energy     :         2364.22166329 Eh           64333.74212 eV
Virial Ratio       :            2.04410283


DFT components:
N(Alpha)           :       53.999992515346 electrons
N(Beta)            :       53.999992515346 electrons
N(Total)           :      107.999985030693 electrons
E(X)               :     -121.752690805104 Eh       
E(C)               :       -5.145325204376 Eh       
E(XC)              :     -126.898016009480 Eh       
DFET-embed. en.    :        0.000000000000 Eh       

---------------
SCF CONVERGENCE
---------------

  Last Energy change         ...    1.5932e-08  Tolerance :   1.0000e-08
  Last MAX-Density change    ...    0.0000e+00  Tolerance :   1.0000e-07
  Last RMS-Density change    ...    0.0000e+00  Tolerance :   5.0000e-09
  Last DIIS Error            ...    1.7984e-07  Tolerance :   5.0000e-07

             **** THE GBW FILE WAS UPDATED (CdCl5.gbw) ****
             **** DENSITY CdCl5.scfp WAS UPDATED ****
             **** ENERGY FILE WAS UPDATED (CdCl5.en.tmp) ****
             **** THE GBW FILE WAS UPDATED (CdCl5.gbw) ****
             **** DENSITY CdCl5.scfp WAS UPDATED ****
----------------
ORBITAL ENERGIES
----------------

  NO   OCC          E(Eh)            E(eV) 
   0   2.0000    -100.981352     -2747.8423 
   1   2.0000    -100.981333     -2747.8418 
   2   2.0000    -100.981332     -2747.8417 
   3   2.0000    -100.968345     -2747.4884 
   4   2.0000    -100.968342     -2747.4883 
   5   2.0000      -8.916862      -242.6401 
   6   2.0000      -8.916846      -242.6397 
   7   2.0000      -8.916843      -242.6396 
   8   2.0000      -8.904238      -242.2966 
   9   2.0000      -8.904228      -242.2964 
  10   2.0000      -6.673647      -181.5992 
  11   2.0000      -6.673645      -181.5991 
  12   2.0000      -6.673632      -181.5988 
  13   2.0000      -6.672116      -181.5575 
  14   2.0000      -6.672107      -181.5573 
  15   2.0000      -6.672106      -181.5572 
  16   2.0000      -6.671627      -181.5442 
  17   2.0000      -6.671608      -181.5437 
  18   2.0000      -6.671606      -181.5436 
  19   2.0000      -6.661066      -181.2568 
  20   2.0000      -6.661055      -181.2565 
  21   2.0000      -6.659166      -181.2051 
  22   2.0000      -6.659166      -181.2051 
  23   2.0000      -6.659164      -181.2051 
  24   2.0000      -6.659164      -181.2051 
  25   2.0000      -3.657700       -99.5311 
  26   2.0000      -2.171749       -59.0963 
  27   2.0000      -2.171747       -59.0962 
  28   2.0000      -2.169977       -59.0481 
  29   2.0000      -0.305151        -8.3036 
  30   2.0000      -0.290348        -7.9008 
  31   2.0000      -0.290335        -7.9004 
  32   2.0000      -0.279392        -7.6026 
  33   2.0000      -0.276036        -7.5113 
  34   2.0000      -0.038687        -1.0527 
  35   2.0000      -0.033844        -0.9209 
  36   2.0000      -0.033837        -0.9208 
  37   2.0000      -0.029653        -0.8069 
  38   2.0000      -0.029642        -0.8066 
  39   2.0000       0.076992         2.0951 
  40   2.0000       0.136710         3.7201 
  41   2.0000       0.140898         3.8340 
  42   2.0000       0.140917         3.8346 
  43   2.0000       0.171536         4.6677 
  44   2.0000       0.171538         4.6678 
  45   2.0000       0.183987         5.0065 
  46   2.0000       0.192220         5.2306 
  47   2.0000       0.192229         5.2308 
  48   2.0000       0.198036         5.3888 
  49   2.0000       0.205220         5.5843 
  50   2.0000       0.205221         5.5844 
  51   2.0000       0.217549         5.9198 
  52   2.0000       0.217560         5.9201 
  53   2.0000       0.247898         6.7456 
  54   0.0000       0.485339        13.2068 
  55   0.0000       0.527304        14.3487 
  56   0.0000       0.527311        14.3489 
  57   0.0000       0.542366        14.7585 
  58   0.0000       0.589466        16.0402 
  59   0.0000       0.683160        18.5897 
  60   0.0000       0.683164        18.5898 
  61   0.0000       0.705998        19.2112 
  62   0.0000       0.720733        19.6121 
  63   0.0000       0.743931        20.2434 
  64   0.0000       0.743947        20.2438 
  65   0.0000       0.789517        21.4838 
  66   0.0000       0.792023        21.5520 
  67   0.0000       0.802652        21.8413 
  68   0.0000       0.802666        21.8416 
  69   0.0000       0.814988        22.1769 
  70   0.0000       0.814990        22.1770 
  71   0.0000       0.821323        22.3493 
  72   0.0000       0.821364        22.3504 
  73   0.0000       0.841141        22.8886 
  74   0.0000       0.841145        22.8887 
  75   0.0000       0.844396        22.9772 
  76   0.0000       0.863244        23.4901 
  77   0.0000       0.863270        23.4908 
  78   0.0000       0.871722        23.7208 
  79   0.0000       0.871742        23.7213 
  80   0.0000       0.904149        24.6032 
  81   0.0000       0.904160        24.6035 
  82   0.0000       0.905377        24.6366 
  83   0.0000       0.908327        24.7168 
  84   0.0000       0.932839        25.3838 
  85   0.0000       0.948148        25.8004 
  86   0.0000       0.960306        26.1312 
  87   0.0000       0.960333        26.1320 
  88   0.0000       0.969529        26.3822 
  89   0.0000       0.969537        26.3825 
  90   0.0000       0.987527        26.8720 
  91   0.0000       0.995568        27.0908 
  92   0.0000       0.995571        27.0909 
  93   0.0000       1.099218        29.9113 
  94   0.0000       1.099265        29.9125 
  95   0.0000       1.120260        30.4838 
  96   0.0000       1.120282        30.4844 
  97   0.0000       1.120405        30.4878 
  98   0.0000       1.148718        31.2582 
  99   0.0000       1.148734        31.2586 
 100   0.0000       1.162766        31.6405 
 101   0.0000       1.203030        32.7361 
 102   0.0000       1.343172        36.5496 
 103   0.0000       1.384307        37.6689 
 104   0.0000       1.384334        37.6696 
 105   0.0000       1.384356        37.6702 
 106   0.0000       1.384363        37.6704 
 107   0.0000       1.479908        40.2703 
 108   0.0000       1.499312        40.7984 
 109   0.0000       1.581971        43.0476 
 110   0.0000       1.582008        43.0486 
 111   0.0000       1.593533        43.3622 
 112   0.0000       2.168449        59.0065 
 113   0.0000       2.168466        59.0070 
 114   0.0000       2.168538        59.0089 
 115   0.0000       2.174293        59.1655 
 116   0.0000       2.174334        59.1666 
 117   0.0000       2.220533        60.4238 
 118   0.0000       2.230788        60.7028 
 119   0.0000       2.240435        60.9653 
 120   0.0000       2.240518        60.9676 
 121   0.0000       2.253219        61.3132 
 122   0.0000       2.258269        61.4506 
 123   0.0000       2.258302        61.4515 
 124   0.0000       2.302667        62.6587 
 125   0.0000       2.302754        62.6611 
 126   0.0000       2.304518        62.7091 
 127   0.0000       2.304587        62.7110 
 128   0.0000       2.347244        63.8718 
 129   0.0000       2.347262        63.8723 
 130   0.0000       2.370808        64.5130 
 131   0.0000       2.372587        64.5614 
 132   0.0000       2.387892        64.9778 
 133   0.0000       2.399971        65.3065 
 134   0.0000       2.399974        65.3066 
 135   0.0000       2.415055        65.7170 
 136   0.0000       2.416472        65.7555 
 137   0.0000       2.416492        65.7561 
 138   0.0000       2.421059        65.8804 
 139   0.0000       2.421068        65.8806 
 140   0.0000       2.454932        66.8021 
 141   0.0000       2.551284        69.4240 
 142   0.0000       2.563564        69.7581 
 143   0.0000       2.563588        69.7588 
 144   0.0000       2.568644        69.8964 
 145   0.0000       2.568727        69.8986 
 146   0.0000       2.581188        70.2377 
 147   0.0000       2.583791        70.3085 
 148   0.0000       2.583798        70.3087 
 149   0.0000       2.593135        70.5628 
 150   0.0000       2.593176        70.5639 
 151   0.0000       2.593499        70.5727 
 152   0.0000       2.593522        70.5733 
 153   0.0000       2.593883        70.5831 
 154   0.0000       2.596070        70.6427 
 155   0.0000       2.604564        70.8738 
 156   0.0000       2.607519        70.9542 
 157   0.0000       2.608135        70.9710 
 158   0.0000       2.609310        71.0029 
 159   0.0000       2.611917        71.0739 
 160   0.0000       2.612019        71.0767 
 161   0.0000       2.614222        71.1366 
 162   0.0000       2.616309        71.1934 
 163   0.0000       2.616424        71.1965 
 164   0.0000       2.621939        71.3466 
 165   0.0000       2.621941        71.3467 
 166   0.0000       2.662690        72.4555 
 167   0.0000       2.699954        73.4695 
 168   0.0000       2.706216        73.6399 
 169   0.0000       2.721497        74.0557 
 170   0.0000       2.721546        74.0570 
 171   0.0000       2.729216        74.2658 
 172   0.0000       2.729266        74.2671 
 173   0.0000       2.750907        74.8560 
 174   0.0000       2.750935        74.8567 
 175   0.0000       2.752000        74.8857 
 176   0.0000       2.796031        76.0839 
 177   0.0000       2.796062        76.0847 
 178   0.0000       2.799004        76.1648 
 179   0.0000       2.799045        76.1659 
 180   0.0000       2.819719        76.7285 
 181   0.0000       2.870173        78.1014 
 182   0.0000       2.870190        78.1019 
 183   0.0000       2.887089        78.5617 
 184   0.0000       2.894123        78.7531 
 185   0.0000       2.907287        79.1113 
 186   0.0000       2.907305        79.1118 
 187   0.0000       3.102780        84.4309 
 188   0.0000       3.151280        85.7507 
 189   0.0000       3.151291        85.7510 
 190   0.0000       3.161483        86.0283 
 191   0.0000       3.161554        86.0302 
 192   0.0000       3.245704        88.3201 
 193   0.0000       3.274221        89.0961 
 194   0.0000       3.274251        89.0969 
 195   0.0000       3.381261        92.0088 
 196   0.0000       3.499458        95.2251 
 197   0.0000       3.499473        95.2255 
 198   0.0000       3.529086        96.0313 
 199   0.0000       3.572304        97.2073 
 200   0.0000       3.572311        97.2075 
 201   0.0000       3.652726        99.3957 
 202   0.0000       3.727324       101.4256 
 203   0.0000      11.195380       304.6418 
 204   0.0000      11.195440       304.6434 
 205   0.0000      11.214277       305.1560 
 206   0.0000      11.225792       305.4693 
 207   0.0000      11.225807       305.4697 
 208   0.0000      11.240428       305.8676 
 209   0.0000      11.247081       306.0486 
 210   0.0000      11.247115       306.0495 
 211   0.0000      11.248913       306.0985 
 212   0.0000      11.260252       306.4070 
 213   0.0000      11.260275       306.4077 
 214   0.0000      11.339110       308.5529 
 215   0.0000      11.507993       313.1484 
 216   0.0000      11.508158       313.1529 
 217   0.0000      11.520722       313.4948 
 218   0.0000      25.071767       682.2375 
 219   0.0000      25.163432       684.7318 
 220   0.0000      25.163476       684.7330 
 221   0.0000      25.264180       687.4733 
 222   0.0000      25.321951       689.0453 
 223   0.0000      36.394627       990.3482 
 224   0.0000     114.093807      3104.6503 

                    ********************************
                    * MULLIKEN POPULATION ANALYSIS *
                    ********************************

-----------------------
MULLIKEN ATOMIC CHARGES
-----------------------
   0 Cd:    0.903907
   1 Cl:   -0.773470
   2 Cl:   -0.773470
   3 Cl:   -0.785525
   4 Cl:   -0.785722
   5 Cl:   -0.785722
Sum of atomic charges:   -3.0000000

--------------------------------
MULLIKEN REDUCED ORBITAL CHARGES
--------------------------------
  0 Cds       :     2.500561  s :     2.500561
      pz      :     2.238089  p :     6.708019
      px      :     2.231590
      py      :     2.238340
      dz2     :     1.967255  d :     9.885088
      dxz     :     1.996577
      dyz     :     1.977014
      dx2y2   :     1.947618
      dxy     :     1.996624
      f0      :     0.000293  f :     0.002425
      f+1     :     0.000335
      f-1     :     0.000482
      f+2     :     0.000332
      f-2     :     0.000077
      f+3     :     0.000508
      f-3     :     0.000397
  1 Cls       :     5.918889  s :     5.918889
      pz      :     3.970344  p :    11.830811
      px      :     3.890161
      py      :     3.970305
      dz2     :     0.003195  d :     0.021726
      dxz     :     0.004944
      dyz     :     0.000940
      dx2y2   :     0.007704
      dxy     :     0.004944
      f0      :     0.000173  f :     0.002044
      f+1     :     0.000415
      f-1     :     0.000038
      f+2     :     0.000285
      f-2     :     0.000053
      f+3     :     0.000656
      f-3     :     0.000424
  2 Cls       :     5.918889  s :     5.918889
      pz      :     3.970344  p :    11.830810
      px      :     3.890160
      py      :     3.970305
      dz2     :     0.003195  d :     0.021726
      dxz     :     0.004944
      dyz     :     0.000940
      dx2y2   :     0.007704
      dxy     :     0.004944
      f0      :     0.000173  f :     0.002044
      f+1     :     0.000415
      f-1     :     0.000038
      f+2     :     0.000285
      f-2     :     0.000053
      f+3     :     0.000656
      f-3     :     0.000424
  3 Cls       :     5.925539  s :     5.925539
      pz      :     3.965768  p :    11.835214
      px      :     3.973524
      py      :     3.895922
      dz2     :     0.002805  d :     0.022676
      dxz     :     0.000404
      dyz     :     0.005378
      dx2y2   :     0.008701
      dxy     :     0.005388
      f0      :     0.000183  f :     0.002095
      f+1     :     0.000034
      f-1     :     0.000371
      f+2     :     0.000317
      f-2     :     0.000033
      f+3     :     0.000441
      f-3     :     0.000716
  4 Cls       :     5.925578  s :     5.925578
      pz      :     3.913466  p :    11.835379
      px      :     3.973586
      py      :     3.948327
      dz2     :     0.007343  d :     0.022670
      dxz     :     0.004137
      dyz     :     0.006969
      dx2y2   :     0.002573
      dxy     :     0.001648
      f0      :     0.000484  f :     0.002095
      f+1     :     0.000239
      f-1     :     0.000700
      f+2     :     0.000341
      f-2     :     0.000221
      f+3     :     0.000048
      f-3     :     0.000061
  5 Cls       :     5.925579  s :     5.925579
      pz      :     3.913465  p :    11.835378
      px      :     3.973586
      py      :     3.948327
      dz2     :     0.007343  d :     0.022670
      dxz     :     0.004137
      dyz     :     0.006969
      dx2y2   :     0.002573
      dxy     :     0.001648
      f0      :     0.000484  f :     0.002095
      f+1     :     0.000239
      f-1     :     0.000700
      f+2     :     0.000341
      f-2     :     0.000221
      f+3     :     0.000048
      f-3     :     0.000061


                     *******************************
                     * LOEWDIN POPULATION ANALYSIS *
                     *******************************

----------------------
LOEWDIN ATOMIC CHARGES
----------------------
   0 Cd:   -0.574623
   1 Cl:   -0.491377
   2 Cl:   -0.491377
   3 Cl:   -0.480843
   4 Cl:   -0.480890
   5 Cl:   -0.480890

-------------------------------
LOEWDIN REDUCED ORBITAL CHARGES
-------------------------------
  0 Cds       :     2.515079  s :     2.515079
      pz      :     2.505933  p :     7.553889
      px      :     2.541975
      py      :     2.505981
      dz2     :     2.127494  d :    10.502367
      dxz     :     2.042441
      dyz     :     2.092471
      dx2y2   :     2.197501
      dxy     :     2.042459
      f0      :     0.000367  f :     0.003289
      f+1     :     0.000455
      f-1     :     0.000706
      f+2     :     0.000432
      f-2     :     0.000093
      f+3     :     0.000696
      f-3     :     0.000541
  1 Cls       :     5.750186  s :     5.750186
      pz      :     3.940665  p :    11.686366
      px      :     3.805052
      py      :     3.940649
      dz2     :     0.008205  d :     0.050350
      dxz     :     0.009591
      dyz     :     0.001654
      dx2y2   :     0.021307
      dxy     :     0.009594
      f0      :     0.000363  f :     0.004474
      f+1     :     0.000941
      f-1     :     0.000088
      f+2     :     0.000594
      f-2     :     0.000104
      f+3     :     0.001498
      f-3     :     0.000885
  2 Cls       :     5.750186  s :     5.750186
      pz      :     3.940665  p :    11.686366
      px      :     3.805052
      py      :     3.940649
      dz2     :     0.008205  d :     0.050350
      dxz     :     0.009591
      dyz     :     0.001654
      dx2y2   :     0.021307
      dxy     :     0.009594
      f0      :     0.000363  f :     0.004474
      f+1     :     0.000941
      f-1     :     0.000088
      f+2     :     0.000595
      f-2     :     0.000104
      f+3     :     0.001498
      f-3     :     0.000885
  3 Cls       :     5.751654  s :     5.751654
      pz      :     3.930908  p :    11.677551
      px      :     3.944615
      py      :     3.802029
      dz2     :     0.008179  d :     0.047123
      dxz     :     0.000542
      dyz     :     0.010447
      dx2y2   :     0.018114
      dxy     :     0.009841
      f0      :     0.000439  f :     0.004515
      f+1     :     0.000076
      f-1     :     0.000889
      f+2     :     0.000754
      f-2     :     0.000063
      f+3     :     0.000896
      f-3     :     0.001398
  4 Cls       :     5.751646  s :     5.751646
      pz      :     3.834265  p :    11.677621
      px      :     3.944661
      py      :     3.898695
      dz2     :     0.015288  d :     0.047109
      dxz     :     0.007510
      dyz     :     0.017178
      dx2y2   :     0.004270
      dxy     :     0.002864
      f0      :     0.001091  f :     0.004514
      f+1     :     0.000484
      f-1     :     0.001559
      f+2     :     0.000705
      f-2     :     0.000450
      f+3     :     0.000101
      f-3     :     0.000125
  5 Cls       :     5.751646  s :     5.751646
      pz      :     3.834265  p :    11.677621
      px      :     3.944661
      py      :     3.898695
      dz2     :     0.015288  d :     0.047109
      dxz     :     0.007510
      dyz     :     0.017178
      dx2y2   :     0.004270
      dxy     :     0.002864
      f0      :     0.001091  f :     0.004514
      f+1     :     0.000484
      f-1     :     0.001559
      f+2     :     0.000705
      f-2     :     0.000450
      f+3     :     0.000101
      f-3     :     0.000125


                      *****************************
                      * MAYER POPULATION ANALYSIS *
                      *****************************

  NA   - Mulliken gross atomic population
  ZA   - Total nuclear charge
  QA   - Mulliken gross atomic charge
  VA   - Mayer's total valence
  BVA  - Mayer's bonded valence
  FA   - Mayer's free valence

  ATOM       NA         ZA         QA         VA         BVA        FA
  0 Cd    19.0961    20.0000     0.9039     2.1600     2.1600    -0.0000
  1 Cl    17.7735    17.0000    -0.7735     0.3537     0.3537    -0.0000
  2 Cl    17.7735    17.0000    -0.7735     0.3537     0.3537    -0.0000
  3 Cl    17.7855    17.0000    -0.7855     0.3777     0.3777     0.0000
  4 Cl    17.7857    17.0000    -0.7857     0.3773     0.3773    -0.0000
  5 Cl    17.7857    17.0000    -0.7857     0.3773     0.3773     0.0000

  Mayer bond orders larger than 0.100000
B(  0-Cd,  1-Cl) :   0.4359 B(  0-Cd,  2-Cl) :   0.4359 B(  0-Cd,  3-Cl) :   0.4296 
B(  0-Cd,  4-Cl) :   0.4293 B(  0-Cd,  5-Cl) :   0.4293 

-------
TIMINGS
-------

Total SCF time: 0 days 0 hours 0 min 12 sec 

Total time                  ....      12.601 sec
Sum of individual times     ....      12.365 sec  ( 98.1%)

Fock matrix formation       ....      10.198 sec  ( 80.9%)
  Split-RI-J                ....       0.876 sec  (  8.6% of F)
  Chain of spheres X        ....       8.102 sec  ( 79.4% of F)
  XC integration            ....       1.187 sec  ( 11.6% of F)
    Basis function eval.    ....       0.348 sec  ( 29.3% of XC)
    Density eval.           ....       0.311 sec  ( 26.2% of XC)
    XC-Functional eval.     ....       0.058 sec  (  4.9% of XC)
    XC-Potential eval.      ....       0.356 sec  ( 30.0% of XC)
Diagonalization             ....       0.092 sec  (  0.7%)
Density matrix formation    ....       0.005 sec  (  0.0%)
Population analysis         ....       0.006 sec  (  0.0%)
Initial guess               ....       1.507 sec  ( 12.0%)
Orbital Transformation      ....       0.000 sec  (  0.0%)
Orbital Orthonormalization  ....       0.000 sec  (  0.0%)
DIIS solution               ....       0.053 sec  (  0.4%)
Grid generation             ....       0.506 sec  (  4.0%)

Maximum memory used throughout the entire SCF-calculation: 69.2 MB

-------------------------   --------------------
FINAL SINGLE POINT ENERGY     -2468.490524721938
-------------------------   --------------------



           ************************************************************
           *        Program running with 4 parallel MPI-processes     *
           *              working on a common directory               *
           ************************************************************
------------------------------------------------------------------------------
                         ORCA SCF GRADIENT CALCULATION
------------------------------------------------------------------------------

 ... reading COSX grid (gridx3)
Gradient of the Kohn-Sham DFT energy:
Kohn-Sham wavefunction type      ... RKS
Hartree-Fock exchange scaling    ...    0.200
Number of operators              ...    1
Number of atoms                  ...    6
Basis set dimensions             ...  225
Integral neglect threshold       ... 2.5e-11
Integral primitive cutoff        ... 2.5e-12
SHARK Integral package           ... ON

Nuc. rep. gradient       (SHARK) ... done (  0.0 sec)
HCore & Overlap gradient (SHARK) ... done (  0.0 sec)
ECP gradient             (SHARK) ... done (  0.5 sec)
RI-J gradient            (SHARK) ... done (  0.4 sec)
COSX-gradient                    ... done (  1.9 sec)
Exchange-correlation gradient    ... done

------------------
CARTESIAN GRADIENT
------------------

   1   Cd  :    0.000000033   -0.000062542    0.000000076
   2   Cl  :    0.101091269    0.000022598    0.000000005
   3   Cl  :   -0.101091444    0.000022579   -0.000000015
   4   Cl  :    0.000000057   -0.092600181    0.000000075
   5   Cl  :   -0.000000044    0.046701936   -0.080174551
   6   Cl  :    0.000000243    0.046701678    0.080174410

Difference to translation invariance:
           :    0.0000001144    0.0007860671    0.0000000007

Difference to rotation invariance:
           :   -0.0000003348   -0.0000009793    0.0000000966

Norm of the cartesian gradient     ...    0.2150156630
RMS gradient                       ...    0.0506796778
MAX gradient                       ...    0.1010914436

-------
TIMINGS
-------

Total SCF gradient time            ...        3.876 sec

One electron gradient       ....       0.552 sec  ( 14.2%)
RI-J Coulomb gradient       ....       0.379 sec  (  9.8%)
COSX gradient               ....       1.907 sec  ( 49.2%)
XC gradient                 ....       0.439 sec  ( 11.3%)

Maximum memory used throughout the entire SCFGRAD-calculation: 43.0 MB
------------------------------------------------------------------------------
                         ORCA GEOMETRY RELAXATION STEP
------------------------------------------------------------------------------

Reading the OPT-File                    .... done
Getting information on internals        .... done
Copying old internal coords+grads       .... done
Making the new internal coordinates     .... (new redundants).... done
Validating the new internal coordinates .... (new redundants).... done
Calculating the B-matrix                .... done
Calculating the G,G- and P matrices     .... done
Transforming gradient to internals      .... done
Projecting the internal gradient        .... done
Number of atoms                         ....   6
Number of internal coordinates          ....  14
Current Energy                          .... -2468.490524722 Eh
Current gradient norm                   ....     0.215015663 Eh/bohr
Maximum allowed component of the step   ....  0.300
Current trust radius                    ....  0.300
Evaluating the initial hessian          ....  (Almloef) done
Projecting the Hessian                  .... done
Forming the augmented Hessian           .... done
Diagonalizing the augmented Hessian     .... done
Last element of RFO vector              ....  0.946812259
Lowest eigenvalues of augmented Hessian:
 -0.073076461  0.559557353  0.559572135  0.559597113  0.559597113
Length of the computed step             ....  0.339863040
Warning: the length of the step is outside the trust region - taking restricted step instead
The input lambda is                     ....    -0.073076
   iter:   1  x=   -0.142930  g=    0.365147 f(x)=     0.025507
   iter:   2  x=   -0.156722  g=    0.266695 f(x)=     0.003678
   iter:   3  x=   -0.157142  g=    0.251584 f(x)=     0.000106
   iter:   4  x=   -0.157142  g=    0.251143 f(x)=     0.000000
   iter:   5  x=   -0.157142  g=    0.251142 f(x)=     0.000000
   iter:   6  x=   -0.157142  g=    0.251142 f(x)=     0.000000
The output lambda is                    ....    -0.157142 (6 iterations)
The final length of the internal step   ....  0.300000000
Converting the step to cartesian space:
 Initial RMS(Int)=    0.0801783726
Transforming coordinates:
 Iter   0:  RMS(Cart)=    0.0707159589 RMS(Int)=    0.0801785297
 Iter   1:  RMS(Cart)=    0.0000280146 RMS(Int)=    0.0000108668
 Iter   2:  RMS(Cart)=    0.0000008467 RMS(Int)=    0.0000003254
 Iter   3:  RMS(Cart)=    0.0000000256 RMS(Int)=    0.0000000098
done
Storing new coordinates                 .... done

                                .--------------------.
          ----------------------|Geometry convergence|-------------------------
          Item                value                   Tolerance       Converged
          ---------------------------------------------------------------------
          RMS gradient        0.0574658126            0.0001000000      NO
          MAX gradient        0.1010914626            0.0003000000      NO
          RMS step            0.0801783726            0.0020000000      NO
          MAX step            0.1410435671            0.0040000000      NO
          ........................................................
          Max(Bonds)      0.0746      Max(Angles)    0.06
          Max(Dihed)        0.00      Max(Improp)    0.00
          ---------------------------------------------------------------------

The optimization has not yet converged - more geometry cycles are needed


    ---------------------------------------------------------------------------
                         Redundant Internal Coordinates
                            (Angstroem and degrees)

        Definition                    Value    dE/dq     Step     New-Value
    ----------------------------------------------------------------------------
     1. B(Cl  1,Cd  0)                2.2700 -0.101091  0.0746    2.3446   
     2. B(Cl  2,Cd  0)                2.2700 -0.101091  0.0746    2.3446   
     3. B(Cl  3,Cd  0)                2.2700 -0.092731  0.0685    2.3385   
     4. B(Cl  4,Cd  0)                2.2700 -0.092719  0.0685    2.3385   
     5. B(Cl  5,Cd  0)                2.2700 -0.092718  0.0685    2.3385   
     6. A(Cl  2,Cd  0,Cl  3)           90.00  0.000310   -0.02     89.98   
     7. A(Cl  1,Cd  0,Cl  4)           90.00 -0.000155    0.01     90.01   
     8. A(Cl  2,Cd  0,Cl  4)           90.00 -0.000155    0.01     90.01   
     9. A(Cl  3,Cd  0,Cl  4)          120.00 -0.000350    0.03    120.03   
    10. A(Cl  1,Cd  0,Cl  5)           90.00 -0.000155    0.01     90.01   
    11. A(Cl  2,Cd  0,Cl  5)           90.00 -0.000155    0.01     90.01   
    12. A(Cl  3,Cd  0,Cl  5)          120.00 -0.000350    0.03    120.03   
    13. A(Cl  4,Cd  0,Cl  5)          120.00  0.000700   -0.06    119.95   
    14. A(Cl  1,Cd  0,Cl  3)           90.00  0.000310   -0.02     89.98   
    ----------------------------------------------------------------------------

         *************************************************************
         *                GEOMETRY OPTIMIZATION CYCLE   2            *
         *************************************************************
---------------------------------
CARTESIAN COORDINATES (ANGSTROEM)
---------------------------------
  Cd     0.000000   -0.000009    0.000000
  Cl    -2.344636    0.000996   -0.000000
  Cl     2.344637    0.000996    0.000000
  Cl    -0.000000    2.338455   -0.000000
  Cl     0.000000   -1.170219    2.024621
  Cl    -0.000001   -1.170219   -2.024621

----------------------------
CARTESIAN COORDINATES (A.U.)
----------------------------
  NO LB      ZA    FRAG     MASS         X           Y           Z
   0 Cd   20.0000*   0   112.410    0.000000   -0.000018    0.000000
   1 Cl   17.0000    0    35.453   -4.430721    0.001883   -0.000000
   2 Cl   17.0000    0    35.453    4.430722    0.001883    0.000001
   3 Cl   17.0000    0    35.453   -0.000000    4.419040   -0.000001
   4 Cl   17.0000    0    35.453    0.000000   -2.211394    3.825979
   5 Cl   17.0000    0    35.453   -0.000001   -2.211393   -3.825979
* core charge reduced due to ECP

--------------------------------
INTERNAL COORDINATES (ANGSTROEM)
--------------------------------
 Cd     0   0   0     0.000000000000     0.00000000     0.00000000
 Cl     1   0   0     2.344636883941     0.00000000     0.00000000
 Cl     1   2   0     2.344637041118   179.95084713     0.00000000
 Cl     1   2   3     2.338464553359    89.97541601     0.00000000
 Cl     1   2   4     2.338478438506    90.01229910   120.02747547
 Cl     1   2   4     2.338478253374    90.01227148   239.97255876

---------------------------
INTERNAL COORDINATES (A.U.)
---------------------------
 Cd     0   0   0     0.000000000000     0.00000000     0.00000000
 Cl     1   0   0     4.430721594138     0.00000000     0.00000000
 Cl     1   2   0     4.430721891161   179.95084713     0.00000000
 Cl     1   2   3     4.419057579732    89.97541601     0.00000000
 Cl     1   2   4     4.419083818856    90.01229910   120.02747547
 Cl     1   2   4     4.419083469007    90.01227148   239.97255876



           ************************************************************
           *        Program running with 4 parallel MPI-processes     *
           *              working on a common directory               *
           ************************************************************
------------------------------------------------------------------------------
                   ___                                                        
                  /   \      - P O W E R E D   B Y -                         
                 /     \                                                     
                 |  |  |   _    _      __       _____    __    __             
                 |  |  |  | |  | |    /  \     |  _  \  |  |  /  |          
                  \  \/   | |  | |   /    \    | | | |  |  | /  /          
                 / \  \   | |__| |  /  /\  \   | |_| |  |  |/  /          
                |  |  |   |  __  | /  /__\  \  |    /   |      \           
                |  |  |   | |  | | |   __   |  |    \   |  |\   \          
                \     /   | |  | | |  |  |  |  | |\  \  |  | \   \       
                 \___/    |_|  |_| |__|  |__|  |_| \__\ |__|  \__/        
                                                                              
                      - O R C A' S   B I G   F R I E N D -                    
                                      &                                       
                       - I N T E G R A L  F E E D E R -                       
                                                                              
 v1 FN, 2020, v2 2021                                                         
------------------------------------------------------------------------------


Reading SHARK input file CdCl5.SHARKINP.tmp ... ok
----------------------
SHARK INTEGRAL PACKAGE
----------------------

Number of atoms                             ...      6
Number of basis functions                   ...    225
Number of shells                            ...     79
Maximum angular momentum                    ...      3
Integral batch strategy                     ... SHARK/LIBINT Hybrid
RI-J (if used) integral strategy            ... SPLIT-RIJ (Revised 2003 algorithm where possible)
Printlevel                                  ...      1
Contraction scheme used                     ... SEGMENTED contraction
Coulomb Range Separation                    ... NOT USED
Exchange Range Separation                   ... NOT USED
Finite Nucleus Model                        ... NOT USED
Auxiliary Coulomb fitting basis             ... AVAILABLE
   # of basis functions in Aux-J            ...    344
   # of shells in Aux-J                     ...    108
   Maximum angular momentum in Aux-J        ...      4
Auxiliary J/K fitting basis                 ... NOT available
Auxiliary Correlation fitting basis         ... NOT available
Auxiliary 'external' fitting basis          ... NOT available
Integral threshold                          ...     2.500000e-11
Primitive cut-off                           ...     2.500000e-12
Primitive pair pre-selection threshold      ...     2.500000e-12

Calculating pre-screening integrals         ... done (  0.0 sec) Dimension = 79
Organizing shell pair data                  ... done (  0.5 sec)
Shell pair information
Total number of shell pairs                 ...      3160
Shell pairs after pre-screening             ...      2623
Total number of primitive shell pairs       ...     12439
Primitive shell pairs kept                  ...      6939
          la=0 lb=0:    353 shell pairs
          la=1 lb=0:    697 shell pairs
          la=1 lb=1:    354 shell pairs
          la=2 lb=0:    355 shell pairs
          la=2 lb=1:    347 shell pairs
          la=2 lb=2:     90 shell pairs
          la=3 lb=0:    168 shell pairs
          la=3 lb=1:    160 shell pairs
          la=3 lb=2:     78 shell pairs
          la=3 lb=3:     21 shell pairs

Calculating one electron integrals          ... done (  0.0 sec)
Calculating ECP integrals                   ... done (  0.1 sec)
Calculating RI/J V-Matrix + Cholesky decomp.... done (  0.0 sec)
Calculating Nuclear repulsion               ... done (  0.0 sec) ENN=    807.273895717259 Eh

SHARK setup successfully completed in   0.7 seconds

Maximum memory used throughout the entire GTOINT-calculation: 17.9 MB


           ************************************************************
           *        Program running with 4 parallel MPI-processes     *
           *              working on a common directory               *
           ************************************************************

Diagonalization of the overlap matrix:
Smallest eigenvalue                        ... 9.363e-03
Time for diagonalization                   ...    0.004 sec
Threshold for overlap eigenvalues          ... 1.000e-08
Number of eigenvalues below threshold      ... 0
Time for construction of square roots      ...    0.002 sec
Total time needed                          ...    0.007 sec

-------------------
DFT GRID GENERATION
-------------------

General Integration Accuracy     IntAcc      ... 4.388
Radial Grid Type                 RadialGrid  ... OptM3 with GC (2021)
Angular Grid (max. ang.)         AngularGrid ... 4 (Lebedev-302)
Angular grid pruning method      GridPruning ... 4 (adaptive)
Weight generation scheme         WeightScheme... Becke
Basis function cutoff            BFCut       ... 1.0000e-11
Integration weight cutoff        WCut        ... 1.0000e-14
Angular grids for H and He will be reduced by one unit
Partially contracted basis set               ... off
Rotationally invariant grid construction     ... off

Total number of grid points                  ...    48455
Total number of batches                      ...      760
Average number of points per batch           ...       63
Average number of grid points per atom       ...     8076
Time for grid setup =    0.259 sec

--------------------
COSX GRID GENERATION
--------------------

GRIDX 1
-------
General Integration Accuracy     IntAcc      ... 3.816
Radial Grid Type                 RadialGrid  ... OptM3 with GC (2021)
Angular Grid (max. ang.)         AngularGrid ... 1 (Lebedev-50)
Angular grid pruning method      GridPruning ... 4 (adaptive)
Weight generation scheme         WeightScheme... Becke
Basis function cutoff            BFCut       ... 1.0000e-11
Integration weight cutoff        WCut        ... 1.0000e-14
Angular grids for H and He will be reduced by one unit
Partially contracted basis set               ... on
Rotationally invariant grid construction     ... off

Total number of grid points                  ...     5388
Total number of batches                      ...       86
Average number of points per batch           ...       62
Average number of grid points per atom       ...      898
UseSFitting                                  ... on

GRIDX 2
-------
General Integration Accuracy     IntAcc      ... 4.020
Radial Grid Type                 RadialGrid  ... OptM3 with GC (2021)
Angular Grid (max. ang.)         AngularGrid ... 2 (Lebedev-110)
Angular grid pruning method      GridPruning ... 4 (adaptive)
Weight generation scheme         WeightScheme... Becke
Basis function cutoff            BFCut       ... 1.0000e-11
Integration weight cutoff        WCut        ... 1.0000e-14
Angular grids for H and He will be reduced by one unit
Partially contracted basis set               ... on
Rotationally invariant grid construction     ... off

Total number of grid points                  ...    12861
Total number of batches                      ...      203
Average number of points per batch           ...       63
Average number of grid points per atom       ...     2144
UseSFitting                                  ... on

GRIDX 3
-------
General Integration Accuracy     IntAcc      ... 4.338
Radial Grid Type                 RadialGrid  ... OptM3 with GC (2021)
Angular Grid (max. ang.)         AngularGrid ... 3 (Lebedev-194)
Angular grid pruning method      GridPruning ... 4 (adaptive)
Weight generation scheme         WeightScheme... Becke
Basis function cutoff            BFCut       ... 1.0000e-11
Integration weight cutoff        WCut        ... 1.0000e-14
Angular grids for H and He will be reduced by one unit
Partially contracted basis set               ... on
Rotationally invariant grid construction     ... off

Total number of grid points                  ...    31016
Total number of batches                      ...      488
Average number of points per batch           ...       63
Average number of grid points per atom       ...     5169
UseSFitting                                  ... on

Time for X-Grid setup             =    0.194 sec

--------------
SCF ITERATIONS
--------------
ITER       Energy         Delta-E        Max-DP      RMS-DP      [F,P]     Damp
               ***  Starting incremental Fock matrix formation  ***
  0  -2468.5433713090   0.000000000000 0.00375334  0.00014296  0.1437831 0.7000
  1  -2468.5440415402  -0.000670231159 0.00352535  0.00012686  0.1007163 0.7000
                               ***Turning on DIIS***
  2  -2468.5445035509  -0.000462010706 0.00911612  0.00032059  0.0704662 0.0000
  3  -2468.5455682421  -0.001064691213 0.00333365  0.00004470  0.0028855 0.0000
  4  -2468.5455788749  -0.000010632731 0.00197147  0.00001983  0.0025218 0.0000
  5  -2468.5455883388  -0.000009463898 0.00038500  0.00000660  0.0001903 0.0000
               *** Restarting incremental Fock matrix formation ***
                                   *** Resetting DIIS ***
  6  -2468.5455899284  -0.000001589644 0.00030745  0.00000393  0.0000918 0.0000
  7  -2468.5455898689   0.000000059460 0.00021035  0.00000236  0.0001425 0.0000
  8  -2468.5455899923  -0.000000123353 0.00001262  0.00000018  0.0000099 0.0000
  9  -2468.5455899686   0.000000023701 0.00000617  0.00000009  0.0000099 0.0000
                            ***DIIS convergence achieved***

               *****************************************************
               *                     SUCCESS                       *
               *           SCF CONVERGED AFTER  10 CYCLES          *
               *****************************************************

Old exchange energy                            =    -30.652113687 Eh
New exchange energy                            =    -30.652111033 Eh
Exchange energy change after final integration =      0.000002655 Eh
Total energy after final integration           =  -2468.545587322 Eh
Final COS-X integration done in                =     1.646 sec
Total Energy       :        -2468.54558732 Eh          -67172.54042 eV
  Last Energy change         ...   -7.6675e-09  Tolerance :   1.0000e-08
  Last MAX-Density change    ...    0.0000e+00  Tolerance :   1.0000e-07
             **** THE GBW FILE WAS UPDATED (CdCl5.gbw) ****
             **** DENSITY CdCl5.scfp WAS UPDATED ****
             **** ENERGY FILE WAS UPDATED (CdCl5.en.tmp) ****
             **** THE GBW FILE WAS UPDATED (CdCl5.gbw) ****
             **** DENSITY CdCl5.scfp WAS UPDATED ****
Total SCF time: 0 days 0 hours 0 min 9 sec 

Maximum memory used throughout the entire SCF-calculation: 69.0 MB

-------------------------   --------------------
FINAL SINGLE POINT ENERGY     -2468.545587321669
-------------------------   --------------------



           ************************************************************
           *        Program running with 4 parallel MPI-processes     *
           *              working on a common directory               *
           ************************************************************
------------------------------------------------------------------------------
                         ORCA SCF GRADIENT CALCULATION
------------------------------------------------------------------------------

 ... reading COSX grid (gridx3)
Gradient of the Kohn-Sham DFT energy:
Kohn-Sham wavefunction type      ... RKS
Hartree-Fock exchange scaling    ...    0.200
Number of operators              ...    1
Number of atoms                  ...    6
Basis set dimensions             ...  225
Integral neglect threshold       ... 2.5e-11
Integral primitive cutoff        ... 2.5e-12
SHARK Integral package           ... ON

Nuc. rep. gradient       (SHARK) ... done (  0.0 sec)
HCore & Overlap gradient (SHARK) ... done (  0.0 sec)
ECP gradient             (SHARK) ... done (  0.5 sec)
RI-J gradient            (SHARK) ... done (  0.4 sec)
COSX-gradient                    ... done (  1.9 sec)
Exchange-correlation gradient    ... done

------------------
CARTESIAN GRADIENT
------------------

   1   Cd  :   -0.000000060   -0.000084709   -0.000000054
   2   Cl  :    0.072800072    0.000002169   -0.000000059
   3   Cl  :   -0.072800045    0.000002438    0.000000041
   4   Cl  :    0.000000031   -0.067369269   -0.000000033
   5   Cl  :   -0.000000044    0.033998100   -0.058333120
   6   Cl  :   -0.000000119    0.033998288    0.058332748

Difference to translation invariance:
           :   -0.0000001647    0.0005470162   -0.0000004778

Difference to rotation invariance:
           :    0.0000013924   -0.0000001666    0.0000006965

Norm of the cartesian gradient     ...    0.1557418996
RMS gradient                       ...    0.0367087178
MAX gradient                       ...    0.0728000719

-------
TIMINGS
-------

Total SCF gradient time            ...        3.716 sec

One electron gradient       ....       0.477 sec  ( 12.8%)
RI-J Coulomb gradient       ....       0.376 sec  ( 10.1%)
COSX gradient               ....       1.869 sec  ( 50.3%)
XC gradient                 ....       0.426 sec  ( 11.5%)

Maximum memory used throughout the entire SCFGRAD-calculation: 42.9 MB
------------------------------------------------------------------------------
                         ORCA GEOMETRY RELAXATION STEP
------------------------------------------------------------------------------

Reading the OPT-File                    .... done
Getting information on internals        .... done
Copying old internal coords+grads       .... done
Making the new internal coordinates     .... (new redundants).... done
Validating the new internal coordinates .... (new redundants).... done
Calculating the B-matrix                .... done
Calculating the G,G- and P matrices     .... done
Transforming gradient to internals      .... done
Projecting the internal gradient        .... done
Number of atoms                         ....   6
Number of internal coordinates          ....  14
[...]
 Cl     1   2   4     2.591072208208    91.57115175   124.60565998
 Cl     1   2   4     2.591780282286    91.59788440   235.47674689

---------------------------
INTERNAL COORDINATES (A.U.)
---------------------------
 Cd     0   0   0     0.000000000000     0.00000000     0.00000000
 Cl     1   0   0     6.242818595347     0.00000000     0.00000000
 Cl     1   2   0     6.238847461910   174.39122402     0.00000000
 Cl     1   2   3     4.761199783943    87.18618597   359.61261611
 Cl     1   2   4     4.896416866727    91.57115175   124.60565998
 Cl     1   2   4     4.897754932818    91.59788440   235.47674689



           ************************************************************
           *        Program running with 4 parallel MPI-processes     *
           *              working on a common directory               *
           ************************************************************
------------------------------------------------------------------------------
                   ___                                                        
                  /   \      - P O W E R E D   B Y -                         
                 /     \                                                     
                 |  |  |   _    _      __       _____    __    __             
                 |  |  |  | |  | |    /  \     |  _  \  |  |  /  |          
                  \  \/   | |  | |   /    \    | | | |  |  | /  /          
                 / \  \   | |__| |  /  /\  \   | |_| |  |  |/  /          
                |  |  |   |  __  | /  /__\  \  |    /   |      \           
                |  |  |   | |  | | |   __   |  |    \   |  |\   \          
                \     /   | |  | | |  |  |  |  | |\  \  |  | \   \       
                 \___/    |_|  |_| |__|  |__|  |_| \__\ |__|  \__/        
                                                                              
                      - O R C A' S   B I G   F R I E N D -                    
                                      &                                       
                       - I N T E G R A L  F E E D E R -                       
                                                                              
 v1 FN, 2020, v2 2021                                                         
------------------------------------------------------------------------------


Reading SHARK input file CdCl5.SHARKINP.tmp ... ok
----------------------
SHARK INTEGRAL PACKAGE
----------------------

Number of atoms                             ...      6
Number of basis functions                   ...    225
Number of shells                            ...     79
Maximum angular momentum                    ...      3
Integral batch strategy                     ... SHARK/LIBINT Hybrid
RI-J (if used) integral strategy            ... SPLIT-RIJ (Revised 2003 algorithm where possible)
Printlevel                                  ...      1
Contraction scheme used                     ... SEGMENTED contraction
Coulomb Range Separation                    ... NOT USED
Exchange Range Separation                   ... NOT USED
Finite Nucleus Model                        ... NOT USED
Auxiliary Coulomb fitting basis             ... AVAILABLE
   # of basis functions in Aux-J            ...    344
   # of shells in Aux-J                     ...    108
   Maximum angular momentum in Aux-J        ...      4
Auxiliary J/K fitting basis                 ... NOT available
Auxiliary Correlation fitting basis         ... NOT available
Auxiliary 'external' fitting basis          ... NOT available
Integral threshold                          ...     2.500000e-11
Primitive cut-off                           ...     2.500000e-12
Primitive pair pre-selection threshold      ...     2.500000e-12

Calculating pre-screening integrals         ... done (  0.0 sec) Dimension = 79
Organizing shell pair data                  ... done (  0.1 sec)
Shell pair information
Total number of shell pairs                 ...      3160
Shell pairs after pre-screening             ...      2328
Total number of primitive shell pairs       ...     12439
Primitive shell pairs kept                  ...      5993
          la=0 lb=0:    307 shell pairs
          la=1 lb=0:    632 shell pairs
          la=1 lb=1:    335 shell pairs
          la=2 lb=0:    320 shell pairs
          la=2 lb=1:    309 shell pairs
          la=2 lb=2:     86 shell pairs
          la=3 lb=0:    119 shell pairs
          la=3 lb=1:    126 shell pairs
          la=3 lb=2:     74 shell pairs
          la=3 lb=3:     20 shell pairs

Calculating one electron integrals          ... done (  0.0 sec)
Calculating ECP integrals                   ... done (  0.1 sec)
Calculating RI/J V-Matrix + Cholesky decomp.... done (  0.0 sec)
Calculating Nuclear repulsion               ... done (  0.0 sec) ENN=    665.078758661480 Eh

SHARK setup successfully completed in   0.3 seconds

Maximum memory used throughout the entire GTOINT-calculation: 17.6 MB


           ************************************************************
           *        Program running with 4 parallel MPI-processes     *
           *              working on a common directory               *
           ************************************************************

Diagonalization of the overlap matrix:
Smallest eigenvalue                        ... 1.572e-02
Time for diagonalization                   ...    0.004 sec
Threshold for overlap eigenvalues          ... 1.000e-08
Number of eigenvalues below threshold      ... 0
Time for construction of square roots      ...    0.003 sec
Total time needed                          ...    0.008 sec

-------------------
DFT GRID GENERATION
-------------------

General Integration Accuracy     IntAcc      ... 4.388
Radial Grid Type                 RadialGrid  ... OptM3 with GC (2021)
Angular Grid (max. ang.)         AngularGrid ... 4 (Lebedev-302)
Angular grid pruning method      GridPruning ... 4 (adaptive)
Weight generation scheme         WeightScheme... Becke
Basis function cutoff            BFCut       ... 1.0000e-11
Integration weight cutoff        WCut        ... 1.0000e-14
Angular grids for H and He will be reduced by one unit
Partially contracted basis set               ... off
Rotationally invariant grid construction     ... off

Total number of grid points                  ...    48532
Total number of batches                      ...      763
Average number of points per batch           ...       63
Average number of grid points per atom       ...     8089
Time for grid setup =    0.263 sec

--------------------
COSX GRID GENERATION
--------------------

GRIDX 1
-------
General Integration Accuracy     IntAcc      ... 3.816
Radial Grid Type                 RadialGrid  ... OptM3 with GC (2021)
Angular Grid (max. ang.)         AngularGrid ... 1 (Lebedev-50)
Angular grid pruning method      GridPruning ... 4 (adaptive)
Weight generation scheme         WeightScheme... Becke
Basis function cutoff            BFCut       ... 1.0000e-11
Integration weight cutoff        WCut        ... 1.0000e-14
Angular grids for H and He will be reduced by one unit
Partially contracted basis set               ... on
Rotationally invariant grid construction     ... off

Total number of grid points                  ...     5397
Total number of batches                      ...       87
Average number of points per batch           ...       62
Average number of grid points per atom       ...      900
UseSFitting                                  ... on

GRIDX 2
-------
General Integration Accuracy     IntAcc      ... 4.020
Radial Grid Type                 RadialGrid  ... OptM3 with GC (2021)
Angular Grid (max. ang.)         AngularGrid ... 2 (Lebedev-110)
Angular grid pruning method      GridPruning ... 4 (adaptive)
Weight generation scheme         WeightScheme... Becke
Basis function cutoff            BFCut       ... 1.0000e-11
Integration weight cutoff        WCut        ... 1.0000e-14
Angular grids for H and He will be reduced by one unit
Partially contracted basis set               ... on
Rotationally invariant grid construction     ... off

Total number of grid points                  ...    12918
Total number of batches                      ...      206
Average number of points per batch           ...       62
Average number of grid points per atom       ...     2153
UseSFitting                                  ... on

GRIDX 3
-------
General Integration Accuracy     IntAcc      ... 4.338
Radial Grid Type                 RadialGrid  ... OptM3 with GC (2021)
Angular Grid (max. ang.)         AngularGrid ... 3 (Lebedev-194)
Angular grid pruning method      GridPruning ... 4 (adaptive)
Weight generation scheme         WeightScheme... Becke
Basis function cutoff            BFCut       ... 1.0000e-11
Integration weight cutoff        WCut        ... 1.0000e-14
Angular grids for H and He will be reduced by one unit
Partially contracted basis set               ... on
Rotationally invariant grid construction     ... off

Total number of grid points                  ...    31141
Total number of batches                      ...      489
Average number of points per batch           ...       63
Average number of grid points per atom       ...     5190
UseSFitting                                  ... on

Time for X-Grid setup             =    0.191 sec

--------------
SCF ITERATIONS
--------------
ITER       Energy         Delta-E        Max-DP      RMS-DP      [F,P]     Damp
               ***  Starting incremental Fock matrix formation  ***
  0  -2468.6530583148   0.000000000000 0.00005713  0.00000153  0.0027381 0.7000
  1  -2468.6530585051  -0.000000190294 0.00006231  0.00000145  0.0019204 0.7000
                               ***Turning on DIIS***
  2  -2468.6530586270  -0.000000121920 0.00018181  0.00000381  0.0013448 0.0000
               *** Restarting incremental Fock matrix formation ***
                                   *** Resetting DIIS ***
  3  -2468.6530589148  -0.000000287785 0.00007070  0.00000139  0.0000362 0.0000
  4  -2468.6530589190  -0.000000004252 0.00003193  0.00000058  0.0000330 0.0000
  5  -2468.6530589193  -0.000000000280 0.00000849  0.00000014  0.0000036 0.0000
  6  -2468.6530589176   0.000000001735 0.00000500  0.00000006  0.0000028 0.0000
                 **** Energy Check signals convergence ****

               *****************************************************
               *                     SUCCESS                       *
               *           SCF CONVERGED AFTER   7 CYCLES          *
               *****************************************************

Old exchange energy                            =    -30.600546700 Eh
New exchange energy                            =    -30.600543154 Eh
Exchange energy change after final integration =      0.000003546 Eh
Total energy after final integration           =  -2468.653055369 Eh
Final COS-X integration done in                =     1.349 sec
Total Energy       :        -2468.65305537 Eh          -67175.46477 eV
  Last Energy change         ...    2.4124e-09  Tolerance :   1.0000e-08
  Last MAX-Density change    ...    0.0000e+00  Tolerance :   1.0000e-07
             **** THE GBW FILE WAS UPDATED (CdCl5.gbw) ****
             **** DENSITY CdCl5.scfp WAS UPDATED ****
             **** ENERGY FILE WAS UPDATED (CdCl5.en.tmp) ****
             **** THE GBW FILE WAS UPDATED (CdCl5.gbw) ****
             **** DENSITY CdCl5.scfp WAS UPDATED ****
Total SCF time: 0 days 0 hours 0 min 6 sec 

Maximum memory used throughout the entire SCF-calculation: 68.0 MB

-------------------------   --------------------
FINAL SINGLE POINT ENERGY     -2468.653055368693
-------------------------   --------------------



           ************************************************************
           *        Program running with 4 parallel MPI-processes     *
           *              working on a common directory               *
           ************************************************************
------------------------------------------------------------------------------
                         ORCA SCF GRADIENT CALCULATION
------------------------------------------------------------------------------

 ... reading COSX grid (gridx3)
Gradient of the Kohn-Sham DFT energy:
Kohn-Sham wavefunction type      ... RKS
Hartree-Fock exchange scaling    ...    0.200
Number of operators              ...    1
Number of atoms                  ...    6
Basis set dimensions             ...  225
Integral neglect threshold       ... 2.5e-11
Integral primitive cutoff        ... 2.5e-12
SHARK Integral package           ... ON

Nuc. rep. gradient       (SHARK) ... done (  0.0 sec)
HCore & Overlap gradient (SHARK) ... done (  0.0 sec)
ECP gradient             (SHARK) ... done (  0.4 sec)
RI-J gradient            (SHARK) ... done (  0.3 sec)
COSX-gradient                    ... done (  1.6 sec)
Exchange-correlation gradient    ... done

------------------
CARTESIAN GRADIENT
------------------

   1   Cd  :   -0.000024916    0.005074174    0.000028570
   2   Cl  :    0.003602842    0.000114604   -0.000000657
   3   Cl  :   -0.003580885    0.000117117   -0.000000266
   4   Cl  :    0.000000164   -0.002426217   -0.000005505
   5   Cl  :    0.000000557   -0.001266983   -0.000303017
   6   Cl  :   -0.000000194   -0.001278770    0.000276370

Difference to translation invariance:
           :   -0.0000024312    0.0003339254   -0.0000045056

Difference to rotation invariance:
           :   -0.0000089733    0.0000006220    0.0000117082

Norm of the cartesian gradient     ...    0.0078021791
RMS gradient                       ...    0.0018389913
MAX gradient                       ...    0.0050741741

-------
TIMINGS
-------

Total SCF gradient time            ...        2.744 sec

One electron gradient       ....       0.405 sec  ( 14.7%)
RI-J Coulomb gradient       ....       0.309 sec  ( 11.3%)
COSX gradient               ....       1.564 sec  ( 57.0%)
XC gradient                 ....       0.316 sec  ( 11.5%)

Maximum memory used throughout the entire SCFGRAD-calculation: 42.2 MB
------------------------------------------------------------------------------
                         ORCA GEOMETRY RELAXATION STEP
------------------------------------------------------------------------------

Reading the OPT-File                    .... done
Getting information on internals        .... done
Copying old internal coords+grads       .... done
Making the new internal coordinates     .... (new redundants).... done
Validating the new internal coordinates .... (new redundants).... done
Calculating the B-matrix                .... done
Calculating the G,G- and P matrices     .... done
Transforming gradient to internals      .... done
Projecting the internal gradient        .... done
Number of atoms                         ....   6
Number of internal coordinates          ....  14
Current Energy                          .... -2468.653055369 Eh
Current gradient norm                   ....     0.007802179 Eh/bohr
Maximum allowed component of the step   ....  0.300
Current trust radius                    ....  0.300
Resetting Hessian after 50 BFGS Update Steps....
Build internal Hessian                  .... (Almloef) done
Updating Hessian with the last 5 steps  .... done
Forming the augmented Hessian           .... done
Diagonalizing the augmented Hessian     .... done
Last element of RFO vector              ....  0.943782643
Lowest eigenvalues of augmented Hessian:
 -0.001886299  0.012521169  0.014443563  0.043765476  0.176154694
Length of the computed step             ....  0.350257203
Warning: the length of the step is outside the trust region - taking restricted step instead
The input lambda is                     ....    -0.001886
   iter:   1  x=   -0.003830  g=   16.816116 f(x)=     0.032680
   iter:   2  x=   -0.004310  g=   11.545703 f(x)=     0.005548
   iter:   3  x=   -0.004332  g=   10.592854 f(x)=     0.000233
   iter:   4  x=   -0.004332  g=   10.551735 f(x)=     0.000000
   iter:   5  x=   -0.004332  g=   10.551655 f(x)=     0.000000
   iter:   6  x=   -0.004332  g=   10.551655 f(x)=     0.000000
The output lambda is                    ....    -0.004332 (6 iterations)
The final length of the internal step   ....  0.300000000
Converting the step to cartesian space:
 Initial RMS(Int)=    0.0801783726
Transforming coordinates:
 Iter   0:  RMS(Cart)=    0.0672586005 RMS(Int)=    0.0759297027
 Iter   1:  RMS(Cart)=    0.0037658209 RMS(Int)=    0.0042658131
 Iter   2:  RMS(Cart)=    0.0000126590 RMS(Int)=    0.0000035195
 Iter   3:  RMS(Cart)=    0.0000004413 RMS(Int)=    0.0000001291
 Iter   4:  RMS(Cart)=    0.0000000153 RMS(Int)=    0.0000000045
done
Storing new coordinates                 .... done

                                .--------------------.
          ----------------------|Geometry convergence|-------------------------
          Item                value                   Tolerance       Converged
          ---------------------------------------------------------------------
          Energy change       0.0000025519            0.0000050000      YES
          RMS gradient        0.0020698904            0.0001000000      NO
          MAX gradient        0.0040773693            0.0003000000      NO
          RMS step            0.0801783726            0.0020000000      NO
          MAX step            0.2113686370            0.0040000000      NO
          ........................................................
          Max(Bonds)      0.1119      Max(Angles)    0.43
          Max(Dihed)        0.00      Max(Improp)    0.00
          ---------------------------------------------------------------------

The optimization has not yet converged - more geometry cycles are needed


    ---------------------------------------------------------------------------
                         Redundant Internal Coordinates
                            (Angstroem and degrees)

        Definition                    Value    dE/dq     Step     New-Value
    ----------------------------------------------------------------------------
     1. B(Cl  1,Cd  0)                3.3036 -0.003596  0.1118    3.4153   
     2. B(Cl  2,Cd  0)                3.3015 -0.003573  0.1119    3.4133   
     3. B(Cl  3,Cd  0)                2.5195 -0.002482  0.0107    2.5302   
     4. B(Cl  4,Cd  0)                2.5911  0.000502 -0.0049    2.5862   
     5. B(Cl  5,Cd  0)                2.5918  0.000529 -0.0052    2.5866   
     6. A(Cl  2,Cd  0,Cl  3)           87.21 -0.000840    0.15     87.35   
     7. A(Cl  1,Cd  0,Cl  4)           91.57  0.000554   -0.08     91.49   
     8. A(Cl  2,Cd  0,Cl  4)           91.58  0.000551   -0.09     91.49   
     9. A(Cl  3,Cd  0,Cl  4)          124.64  0.002052   -0.24    124.40   
    10. A(Cl  1,Cd  0,Cl  5)           91.60  0.000564   -0.10     91.50   
    11. A(Cl  2,Cd  0,Cl  5)           91.61  0.000563   -0.10     91.51   
    12. A(Cl  3,Cd  0,Cl  5)          124.56  0.002026   -0.20    124.36   
    13. A(Cl  4,Cd  0,Cl  5)          110.81 -0.004077    0.43    111.24   
    14. A(Cl  1,Cd  0,Cl  3)           87.19 -0.000838    0.15     87.34   
    ----------------------------------------------------------------------------




    ----------------------------------------------------------------------------
                                   ERROR !!!
       The optimization did not converge but reached the maximum 
       number of optimization cycles.
       As a subsequent Frequencies calculation has been requested
       ORCA will abort at this point of the run.
       Please restart the calculation with the lowest energy geometry and/or
       a larger maxiter for the geometry optimization.
    ----------------------------------------------------------------------------


[file orca_main/run.cpp, line 12331]: ORCA finished with error return - aborting the run
