
                                 *****************
                                 * O   R   C   A *
                                 *****************

                                            #,                                       
                                            ###                                      
                                            ####                                     
                                            #####                                    
                                            ######                                   
                                           ########,                                 
                                     ,,################,,,,,                         
                               ,,#################################,,                 
                          ,,##########################################,,             
                       ,#########################################, ''#####,          
                    ,#############################################,,   '####,        
                  ,##################################################,,,,####,       
                ,###########''''           ''''###############################       
              ,#####''   ,,,,##########,,,,          '''####'''          '####       
            ,##' ,,,,###########################,,,                        '##       
           ' ,,###''''                  '''############,,,                           
         ,,##''                                '''############,,,,        ,,,,,,###''
      ,#''                                            '''#######################'''  
     '                                                          ''''####''''         
             ,#######,   #######,   ,#######,      ##                                
            ,#'     '#,  ##    ##  ,#'     '#,    #''#        ######   ,####,        
            ##       ##  ##   ,#'  ##            #'  '#       #        #'  '#        
            ##       ##  #######   ##           ,######,      #####,   #    #        
            '#,     ,#'  ##    ##  '#,     ,#' ,#      #,         ##   #,  ,#        
             '#######'   ##     ##  '#######'  #'      '#     #####' # '####'        



                  #######################################################
                  #                        -***-                        #
                  #          Department of theory and spectroscopy      #
                  #    Directorship and core code : Frank Neese         #
                  #        Max Planck Institute fuer Kohlenforschung    #
                  #                Kaiser Wilhelm Platz 1               #
                  #                 D-45470 Muelheim/Ruhr               #
                  #                      Germany                        #
                  #                                                     #
                  #                  All rights reserved                #
                  #                        -***-                        #
                  #######################################################


                         Program Version 5.0.4 -  RELEASE  -


 With contributions from (in alphabetic order):
   Daniel Aravena         : Magnetic Suceptibility
   Michael Atanasov       : Ab Initio Ligand Field Theory (pilot matlab implementation)
   Alexander A. Auer      : GIAO ZORA, VPT2 properties, NMR spectrum
   Ute Becker             : Parallelization
   Giovanni Bistoni       : ED, misc. LED, open-shell LED, HFLD
   Martin Brehm           : Molecular dynamics
   Dmytro Bykov           : SCF Hessian
   Vijay G. Chilkuri      : MRCI spin determinant printing, contributions to CSF-ICE
   Dipayan Datta          : RHF DLPNO-CCSD density
   Achintya Kumar Dutta   : EOM-CC, STEOM-CC
   Dmitry Ganyushin       : Spin-Orbit,Spin-Spin,Magnetic field MRCI
   Miquel Garcia          : C-PCM and meta-GGA Hessian, CC/C-PCM, Gaussian charge scheme
   Yang Guo               : DLPNO-NEVPT2, F12-NEVPT2, CIM, IAO-localization
   Andreas Hansen         : Spin unrestricted coupled pair/coupled cluster methods
   Benjamin Helmich-Paris : MC-RPA, TRAH-SCF, COSX integrals
   Lee Huntington         : MR-EOM, pCC
   Robert Izsak           : Overlap fitted RIJCOSX, COSX-SCS-MP3, EOM
   Marcus Kettner         : VPT2
   Christian Kollmar      : KDIIS, OOCD, Brueckner-CCSD(T), CCSD density, CASPT2, CASPT2-K
   Simone Kossmann        : Meta GGA functionals, TD-DFT gradient, OOMP2, MP2 Hessian
   Martin Krupicka        : Initial AUTO-CI
   Lucas Lang             : DCDCAS
   Marvin Lechner         : AUTO-CI (C++ implementation), FIC-MRCC
   Dagmar Lenk            : GEPOL surface, SMD
   Dimitrios Liakos       : Extrapolation schemes; Compound Job, initial MDCI parallelization
   Dimitrios Manganas     : Further ROCIS development; embedding schemes
   Dimitrios Pantazis     : SARC Basis sets
   Anastasios Papadopoulos: AUTO-CI, single reference methods and gradients
   Taras Petrenko         : DFT Hessian,TD-DFT gradient, ASA, ECA, R-Raman, ABS, FL, XAS/XES, NRVS
   Peter Pinski           : DLPNO-MP2, DLPNO-MP2 Gradient
   Christoph Reimann      : Effective Core Potentials
   Marius Retegan         : Local ZFS, SOC
   Christoph Riplinger    : Optimizer, TS searches, QM/MM, DLPNO-CCSD(T), (RO)-DLPNO pert. Triples
   Tobias Risthaus        : Range-separated hybrids, TD-DFT gradient, RPA, STAB
   Michael Roemelt        : Original ROCIS implementation
   Masaaki Saitow         : Open-shell DLPNO-CCSD energy and density
   Barbara Sandhoefer     : DKH picture change effects
   Avijit Sen             : IP-ROCIS
   Kantharuban Sivalingam : CASSCF convergence, NEVPT2, FIC-MRCI
   Bernardo de Souza      : ESD, SOC TD-DFT
   Georgi Stoychev        : AutoAux, RI-MP2 NMR, DLPNO-MP2 response
   Willem Van den Heuvel  : Paramagnetic NMR
   Boris Wezisla          : Elementary symmetry handling
   Frank Wennmohs         : Technical directorship


 We gratefully acknowledge several colleagues who have allowed us to
 interface, adapt or use parts of their codes:
   Stefan Grimme, W. Hujo, H. Kruse, P. Pracht,  : VdW corrections, initial TS optimization,
                  C. Bannwarth, S. Ehlert          DFT functionals, gCP, sTDA/sTD-DF
   Ed Valeev, F. Pavosevic, A. Kumar             : LibInt (2-el integral package), F12 methods
   Garnet Chan, S. Sharma, J. Yang, R. Olivares  : DMRG
   Ulf Ekstrom                                   : XCFun DFT Library
   Mihaly Kallay                                 : mrcc  (arbitrary order and MRCC methods)
   Jiri Pittner, Ondrej Demel                    : Mk-CCSD
   Frank Weinhold                                : gennbo (NPA and NBO analysis)
   Christopher J. Cramer and Donald G. Truhlar   : smd solvation model
   Lars Goerigk                                  : TD-DFT with DH, B97 family of functionals
   V. Asgeirsson, H. Jonsson                     : NEB implementation
   FAccTs GmbH                                   : IRC, NEB, NEB-TS, DLPNO-Multilevel, CI-OPT
                                                   MM, QMMM, 2- and 3-layer-ONIOM, Crystal-QMMM,
                                                   LR-CPCM, SF, NACMEs, symmetry and pop. for TD-DFT,
                                                   nearIR, NL-DFT gradient (VV10), updates on ESD,
                                                   ML-optimized integration grids
   S Lehtola, MJT Oliveira, MAL Marques          : LibXC Library
   Liviu Ungur et al                             : ANISO software


 Your calculation uses the libint2 library for the computation of 2-el integrals
 For citations please refer to: http://libint.valeyev.net

 Your ORCA version has been built with support for libXC version: 5.1.0
 For citations please refer to: https://tddft.org/programs/libxc/

 This ORCA versions uses:
   CBLAS   interface :  Fast vector & matrix operations
   LAPACKE interface :  Fast linear algebra routines
   SCALAPACK package :  Parallel linear algebra routines
   Shared memory     :  Shared parallel matrices
   BLAS/LAPACK       :  OpenBLAS 0.3.15  USE64BITINT DYNAMIC_ARCH NO_AFFINITY Haswell SINGLE_THREADED
        Core in use  :  Haswell
   Copyright (c) 2011-2014, The OpenBLAS Project


================================================================================

----- Orbital basis set information -----
Your calculation utilizes the basis: def2-SVP
   F. Weigend and R. Ahlrichs, Phys. Chem. Chem. Phys. 7, 3297 (2005).

The basis set includes element-specific modifications.

----- AuxJ basis set information -----
Your calculation utilizes the auxiliary basis: def2/J
   F. Weigend, Phys. Chem. Chem. Phys. 8, 1057 (2006).

The basis set includes element-specific modifications.

================================================================================
                                        WARNINGS
                       Please study these warnings very carefully!
================================================================================


INFO   : the flag for use of the SHARK integral package has been found!


WARNING: TRAH-SCF with ROHF wave function is not implemented yet
  ===> : Turning TRAH off

================================================================================
                                       INPUT FILE
================================================================================
NAME = CdCl5_atom48.inp
|  1> # input to generate an atomic fitting density for Cd
|  2> # this file is used internally by ORCA
|  3> #
|  4> # atomic ground state (S=1): 1s2 2s2 2p6 3s2 3p6 4s2 3d10 4p6 5s2 4d10 
|  5> #
|  6> ! RHF AllowRHF def2-SVP def2/J  NoMulliken NoLoewdin NoMayer NoPrintMOs 
|  7> 
|  8> %output print[p_atomdensfit] 2 end
|  9> 
| 10> %scf
| 11>   guess hcore
| 12>   maxiter 1000
| 13>   maxdisk 500000
| 14>   SCFMode Conventional
| 15>   lshift 1.000000
| 16>   hftyp rohf
| 17>   rohf_case sahf
| 18>   rohf_numop   2
| 19>   rohf_norb[1] 5
| 20>   rohf_nel[1]  10
| 21> end
| 22> 
| 23> %basis
| 24>   NewECP 48
| 25>     N_core 28
| 26>     lmax f
| 27>     s 4
| 28>       1      13.8358689000    270.0094832000  2
| 29>       2       6.8572704000     38.7673080000  2
| 30>       3      15.1847957000     35.4766256000  2
| 31>       4       7.5923978000      5.6176768000  2
| 32>     p 4
| 33>       1      12.4049710000    193.8296294000  2
| 34>       2       6.5677995000     31.8965252000  2
| 35>       3      15.1847957000     35.4766256000  2
| 36>       4       7.5923978000      5.6176768000  2
| 37>     d 4
| 38>       1      10.8969253000     79.1936470000  2
| 39>       2       4.6411649000     13.2308267000  2
| 40>       3      15.1847957000     35.4766256000  2
| 41>       4       7.5923978000      5.6176768000  2
| 42>     f 2
| 43>       1      15.1847957000    -35.4766256000  2
| 44>       2       7.5923978000     -5.6176768000  2
| 45>   end
| 46>   NewGTO 48
| 47>     s 2 
| 48>      1      20.0000000000     -0.8705577278
| 49>      2      16.3090516610      1.8579264276
| 50>     s 1 
| 51>      1       6.4512709901      1.0000000000
| 52>     s 1 
| 53>      1       1.5350047390      1.0000000000
| 54>     s 1 
| 55>      1       0.6898363152      1.0000000000
| 56>     s 1 
| 57>      1       0.1347572098      1.0000000000
| 58>     s 1 
| 59>      1       0.0474168745      1.0000000000
| 60>     p 4 
| 61>      1      14.0006814040      0.0799187426
| 62>      2       8.3094019872     -0.2930121128
| 63>      3       2.2020058122      0.5671292057
| 64>      4       1.0779246137      0.5729057138
| 65>     p 1 
| 66>      1       0.5011187985      1.0000000000
| 67>     p 1 
| 68>      1       0.1600000000      1.0000000000
| 69>     p 1 
| 70>      1       0.0516000000      1.0000000000
| 71>     d 4 
| 72>      1      30.3807897930      0.0049711478
| 73>      2      11.4745515780     -0.0217084208
| 74>      3       3.0507394903      0.3812816359
| 75>      4       1.3622028524      0.6859170380
| 76>     d 1 
| 77>      1       0.5639940989      1.0000000000
| 78>     d 1 
| 79>      1       0.2091668654      1.0000000000
| 80>   end
| 81>   NewAuxGTO 48
| 82>     S 1
| 83>      1 1310.72 1.0
| 84>     S 1
| 85>      1  655.36 1.0
| 86>     S 1
| 87>      1  327.68 1.0
| 88>     S 1
| 89>      1  163.84 1.0
| 90>     S 1
| 91>      1   81.82 1.0
| 92>     S 1
| 93>      1   40.96 1.0
| 94>     S 1
| 95>      1   20.48 1.0
| 96>     S 1
| 97>      1   10.24 1.0
| 98>     S 1
| 99>      1    5.12 1.0
|100>     S 1
|101>      1    2.56 1.0
|102>     S 1
|103>      1    1.28 1.0
|104>     S 1
|105>      1    0.64 1.0
|106>     S 1
|107>      1    0.32 1.0
|108>     S 1
|109>      1    0.16 1.0
|110>     S 1
|111>      1    0.08 1.0
|112>     S 1
|113>      1    0.04 1.0
|114>     S 1
|115>      1    0.02 1.0
|116>     S 1
|117>      1    0.01 1.0
|118>   end
|119> end
|120> 
|121> * xyz 0 1
|122> 48  0.0 0.0 0.0
|123> *
|124> 
|125> 
|126>                          ****END OF INPUT****
================================================================================

                       ****************************
                       * Single Point Calculation *
                       ****************************

---------------------------------
CARTESIAN COORDINATES (ANGSTROEM)
---------------------------------
  Cd     0.000000    0.000000    0.000000

----------------------------
CARTESIAN COORDINATES (A.U.)
----------------------------
  NO LB      ZA    FRAG     MASS         X           Y           Z
   0 Cd   20.0000*   0   112.410    0.000000    0.000000    0.000000
* core charge reduced due to ECP

--------------------------------
INTERNAL COORDINATES (ANGSTROEM)
--------------------------------
 Cd     0   0   0     0.000000000000     0.00000000     0.00000000

---------------------------
INTERNAL COORDINATES (A.U.)
---------------------------
 Cd     0   0   0     0.000000000000     0.00000000     0.00000000

---------------------
BASIS SET INFORMATION
---------------------
There are 1 groups of distinct atoms

 Group   1 Type Cd  : 7s7p6d contracted to 6s4p3d pattern {211111/4111/411}

Atom   0Cd   basis set group =>   1
---------------------------------
AUXILIARY/J BASIS SET INFORMATION
---------------------------------
There are 1 groups of distinct atoms

 Group   1 Type Cd  : 18s contracted to 18s pattern {111111111111111111}

Atom   0Cd   basis set group =>   1
-------------------------
ECP PARAMETER INFORMATION
-------------------------

 Group 1, Type Cd ECP (replacing 28 core electrons, lmax=3)

Atom   0Cd   ECP group =>   1

------------------------------------------------------------------------------
                           ORCA GTO INTEGRAL CALCULATION
------------------------------------------------------------------------------
------------------------------------------------------------------------------
                   ___                                                        
                  /   \      - P O W E R E D   B Y -                         
                 /     \                                                     
                 |  |  |   _    _      __       _____    __    __             
                 |  |  |  | |  | |    /  \     |  _  \  |  |  /  |          
                  \  \/   | |  | |   /    \    | | | |  |  | /  /          
                 / \  \   | |__| |  /  /\  \   | |_| |  |  |/  /          
                |  |  |   |  __  | /  /__\  \  |    /   |      \           
                |  |  |   | |  | | |   __   |  |    \   |  |\   \          
                \     /   | |  | | |  |  |  |  | |\  \  |  | \   \       
                 \___/    |_|  |_| |__|  |__|  |_| \__\ |__|  \__/        
                                                                              
                      - O R C A' S   B I G   F R I E N D -                    
                                      &                                       
                       - I N T E G R A L  F E E D E R -                       
                                                                              
 v1 FN, 2020, v2 2021                                                         
------------------------------------------------------------------------------


Reading SHARK input file CdCl5_atom48.SHARKINP.tmp ... ok
----------------------
SHARK INTEGRAL PACKAGE
----------------------

Number of atoms                             ...      1
Number of basis functions                   ...     33
Number of shells                            ...     13
Maximum angular momentum                    ...      2
Integral batch strategy                     ... SHARK/LIBINT Hybrid
RI-J (if used) integral strategy            ... SPLIT-RIJ (Revised 2003 algorithm where possible)
Printlevel                                  ...      1
Contraction scheme used                     ... SEGMENTED contraction
Coulomb Range Separation                    ... NOT USED
Exchange Range Separation                   ... NOT USED
Finite Nucleus Model                        ... NOT USED
Auxiliary Coulomb fitting basis             ... AVAILABLE
   # of basis functions in Aux-J            ...     18
   # of shells in Aux-J                     ...     18
   Maximum angular momentum in Aux-J        ...      0
Auxiliary J/K fitting basis                 ... NOT available
Auxiliary Correlation fitting basis         ... NOT available
Auxiliary 'external' fitting basis          ... NOT available
Integral threshold                          ...     1.000000e-10
Primitive cut-off                           ...     1.000000e-11
Primitive pair pre-selection threshold      ...     1.000000e-11

Calculating pre-screening integrals         ... done (  0.0 sec) Dimension = 13
Organizing shell pair data                  ... done (  0.0 sec)
Shell pair information
Total number of shell pairs                 ...        91
Shell pairs after pre-screening             ...        91
Total number of primitive shell pairs       ...       223
Primitive shell pairs kept                  ...       223
          la=0 lb=0:     21 shell pairs
          la=1 lb=0:     24 shell pairs
          la=1 lb=1:     10 shell pairs
          la=2 lb=0:     18 shell pairs
          la=2 lb=1:     12 shell pairs
          la=2 lb=2:      6 shell pairs

Calculating one electron integrals          ... done (  0.0 sec)
Calculating ECP integrals                   ... done (  0.0 sec)
Calculating RI/J V-Matrix + Cholesky decomp.... done (  0.0 sec)
Calculating Nuclear repulsion               ... done (  0.0 sec) ENN=      0.000000000000 Eh
Calculating 4-index integrals               ... 
    -> SHARK/Ints2Disk: Thresh =     1.000000e-10 TCut=    1.000000e-11 
    -> calling libint FockFlag=2 Lmax_loc=2
    -> L=0 1 2 2:     0.000 sec done=       144 (=100.0%) skipped=         0 
    -> L=0 2 2 2:     0.001 sec done=       108 (=100.0%) skipped=         0 
    -> L=1 1 1 2:     0.001 sec done=       120 (=100.0%) skipped=         0 
    -> L=1 1 2 2:     0.001 sec done=        60 (=100.0%) skipped=         0 
    -> L=1 2 1 2:     0.001 sec done=        78 (=100.0%) skipped=         0 
    -> L=1 2 2 2:     0.002 sec done=        72 (=100.0%) skipped=         0 
    -> L=2 2 2 2:     0.002 sec done=        21 (=100.0%) skipped=         0 
    ->Total LIBINT loop time =    0.007 sec
    -> L=0 0 0 0:     0.000 sec done=       231 (=100.0%) skipped=         0 
    -> L=1 0 0 0:     0.000 sec done=       504 (=100.0%) skipped=         0 
    -> L=1 0 1 0:     0.000 sec done=       300 (=100.0%) skipped=         0 
    -> L=1 1 0 0:     0.000 sec done=       210 (=100.0%) skipped=         0 
    -> L=1 1 1 0:     0.000 sec done=       240 (=100.0%) skipped=         0 
    -> L=1 1 1 1:     0.000 sec done=        55 (=100.0%) skipped=         0 
    -> L=2 0 0 0:     0.000 sec done=       378 (=100.0%) skipped=         0 
    -> L=2 0 1 0:     0.000 sec done=       432 (=100.0%) skipped=         0 
    -> L=2 0 1 1:     0.000 sec done=       180 (=100.0%) skipped=         0 
    -> L=2 0 2 0:     0.000 sec done=       171 (=100.0%) skipped=         0 
    -> L=2 1 0 0:     0.000 sec done=       252 (=100.0%) skipped=         0 
    -> L=2 1 1 0:     0.001 sec done=       288 (=100.0%) skipped=         0 
    -> L=2 1 2 0:     0.001 sec done=       216 (=100.0%) skipped=         0 
    -> L=2 2 0 0:     0.000 sec done=       126 (=100.0%) skipped=         0 
    ->Total SHARK integral loop time =    0.004 sec
    -> Total Integral generation matrix time =    0.014 sec
    -> Number of small integrals   =         0
    -> Number of medium integrals  =         0
    -> Number of large integrals   =     19137
    -> Number of MB stored         =         0 MB


SHARK setup successfully completed in   0.1 seconds

Maximum memory used throughout the entire GTOINT-calculation: 31.3 MB
-------------------------------------------------------------------------------
                                 ORCA SCF
-------------------------------------------------------------------------------

------------
SCF SETTINGS
------------
Hamiltonian:
 Ab initio Hamiltonian  Method          .... Hartree-Fock(GTOs)


General Settings:
 Integral files         IntName         .... CdCl5_atom48
 Hartree-Fock type      HFTyp           .... ROHF
 Total Charge           Charge          ....    0
 Multiplicity           Mult            ....    1
 Number of Electrons    NEL             ....   20
 Basis Dimension        Dim             ....   33
 Nuclear Repulsion      ENuc            ....      0.0000000000 Eh

Convergence Acceleration:
 DIIS                   CNVDIIS         .... on
   Start iteration      DIISMaxIt       ....    12
   Startup error        DIISStart       ....  0.200000
   # of expansion vecs  DIISMaxEq       ....     5
   Bias factor          DIISBfac        ....   1.050
   Max. coefficient     DIISMaxC        ....  10.000
 Trust-Rad. Augm. Hess. CNVTRAH         .... off
 SOSCF                  CNVSOSCF        .... off
 Level Shifting         CNVShift        .... on
   Level shift para.    LevelShift      ....    1.0000
   Turn off err/grad.   ShiftErr        ....    0.0010
 Zerner damping         CNVZerner       .... off
 Static damping         CNVDamp         .... on
   Fraction old density DampFac         ....    0.7000
   Max. Damping (<1)    DampMax         ....    0.9800
   Min. Damping (>=0)   DampMin         ....    0.0000
   Turn off err/grad.   DampErr         ....    0.1000
 Fernandez-Rico         CNVRico         .... off

SCF Procedure:
 Maximum # iterations   MaxIter         ....  1000
 SCF integral mode      SCFMode         .... Conventional
 Integral Threshold     Thresh          ....  1.000e-10 Eh
 Primitive CutOff       TCut            ....  1.000e-11 Eh
 Integral Buffer length BufferLength    .... 1048576
 Integral index format  IndFormat       ....     0
 Integral value format  ValFormat       ....     0
 Integral Storage       Thresh          ....  1.000e-10 Eh

Convergence Tolerance:
 Convergence Check Mode ConvCheckMode   .... Total+1el-Energy
 Convergence forced     ConvForced      .... 0
 Energy Change          TolE            ....  1.000e-06 Eh
 1-El. energy change                    ....  1.000e-03 Eh
 DIIS Error             TolErr          ....  1.000e-06


Diagonalization of the overlap matrix:
Smallest eigenvalue                        ... 1.904e-02
Time for diagonalization                   ...    0.000 sec
Threshold for overlap eigenvalues          ... 1.000e-08
Number of eigenvalues below threshold      ... 0
Time for construction of square roots      ...    0.000 sec
Total time needed                          ...    0.000 sec

--------------------
INITIAL GUESS: HCORE
--------------------
AVERAGE-CONFIGURATION (SAHF) CASE FOUND

-------------------
FINAL ROHF SETTINGS
-------------------
Number of operators             ... 2
  operator   0:   5 orbitals  10 electrons n(mue)= 2.000
  operator   1:   5 orbitals  10 electrons n(mue)= 2.000
Vector coupling coefficients a and b (Zerner convention):
   1.000    1.000           1.000    1.000 
   1.000    1.000           1.000    1.000 

                      -----------------
                      INTIAL GUESS DONE 
                      -----------------

 InCore treatment chosen:
   Memory dedicated               ...    1024 MB
   Memory needed                  ...      0 MB
   Number of tiny    integrals    ...       0
   Number of small   integrals    ...       0
   Number of regular integrals    ...   19137

--------------
SCF ITERATIONS
--------------
ITER       Energy         Delta-E        Max-DP      RMS-DP      [F,P]     Damp
  0   -151.6016160347   0.000000000000 2.30104367  0.09547110  1.7350959 0.7000
  1   -160.5047333850  -8.903117350284 1.64090864  0.06794116  0.9352647 0.7000
  2   -157.7900424775   2.714690907519 1.11591276  0.04454617  0.2088512 0.7000
  3   -163.6460352499  -5.855992772394 0.81494373  0.03181562  0.2344865 0.7000
                            ****Activating DIIS****
  4   -164.5266557823  -0.880620532406 0.60678514  0.02321947  0.1067257 0.7000
  5   -165.1909428083  -0.664287025975 1.53081666  0.05851283  0.0887767 0.0000
  6   -166.8018434902  -1.610900681911 0.03503718  0.00103657  0.1097410 0.7000
  7   -166.8152597050  -0.013416214854 0.12655414  0.00349211  0.1018760 0.7000
  8   -166.8381833655  -0.022923660471 0.21658416  0.00563765  0.0544686 0.0000
  9   -166.8490601215  -0.010876756009 0.24526140  0.00635696  0.0634629 0.0000
 10   -166.8699869494  -0.020926827919 0.13377074  0.00334042  0.0385965 0.0000
 11   -166.8769223729  -0.006935423471 0.13515632  0.00348009  0.0283907 0.0000
 12   -166.8817795427  -0.004857169746 0.08177563  0.00220756  0.0169912 0.0000
 13   -166.8834688251  -0.001689282424 0.04164600  0.00117129  0.0077352 0.0000
 14   -166.8838618263  -0.000393001169 0.01428830  0.00041337  0.0027575 0.0000
 15   -166.8839157813  -0.000053955067 0.00528718  0.00015578  0.0008535 0.0000
 16   -166.8839225654  -0.000006784033 0.00025590  0.00001178  0.0002321 0.0000
                 **** Energy Check signals convergence ****

               *****************************************************
               *                     SUCCESS                       *
               *           SCF CONVERGED AFTER  17 CYCLES          *
               *****************************************************


----------------
TOTAL SCF ENERGY
----------------

Total Energy       :         -166.88392277 Eh           -4541.14241 eV

Components:
Nuclear Repulsion  :            0.00000000 Eh               0.00000 eV
Electronic Energy  :         -166.88392277 Eh           -4541.14241 eV
One Electron Energy:         -297.38229838 Eh           -8092.18374 eV
Two Electron Energy:          130.49837561 Eh            3551.04133 eV

Virial components:
Potential Energy   :         -231.45404541 Eh           -6298.18477 eV
Kinetic Energy     :           64.57012264 Eh            1757.04236 eV
Virial Ratio       :            3.58453780


---------------
SCF CONVERGENCE
---------------

  Last Energy change         ...   -2.0869e-07  Tolerance :   1.0000e-06
  Last MAX-Density change    ...    6.5439e-05  Tolerance :   1.0000e-05
  Last RMS-Density change    ...    2.8068e-06  Tolerance :   1.0000e-06
  Last DIIS Error            ...    7.2198e-05  Tolerance :   1.0000e-06

             **** THE GBW FILE WAS UPDATED (CdCl5_atom48.gbw) ****
             **** DENSITY CdCl5_atom48.scfp WAS UPDATED ****
             **** ENERGY FILE WAS UPDATED (CdCl5_atom48.en.tmp) ****
             **** THE GBW FILE WAS UPDATED (CdCl5_atom48.gbw) ****
             **** DENSITY CdCl5_atom48.scfp WAS UPDATED ****
----------------
ORBITAL ENERGIES
----------------

  NO   OCC          E(Eh)            E(eV) 
   0   2.0000      -4.553183      -123.8984 
   1   2.0000      -3.169505       -86.2466 
   2   2.0000      -3.169505       -86.2466 
   3   2.0000      -3.169504       -86.2466 
   4   2.0000      -0.719815       -19.5872 
   5   2.0000      -0.719901       -19.5895 
   6   2.0000      -0.719813       -19.5871 
   7   2.0000      -0.719813       -19.5871 
   8   2.0000      -0.719813       -19.5871 
   9   2.0000      -0.531674       -14.4676 
  10   0.0000       0.057093         1.5536 
  11   0.0000       0.057093         1.5536 
  12   0.0000       0.057093         1.5536 
  13   0.0000       0.224834         6.1180 
  14   0.0000       0.363222         9.8838 
  15   0.0000       0.363222         9.8838 
  16   0.0000       0.363222         9.8838 
  17   0.0000       0.640432        17.4270 
  18   0.0000       0.640432        17.4270 
  19   0.0000       0.640432        17.4271 
  20   0.0000       0.640432        17.4271 
  21   0.0000       0.640433        17.4271 
  22   0.0000       2.214112        60.2491 
  23   0.0000       2.214113        60.2491 
  24   0.0000       2.214113        60.2491 
  25   0.0000       2.523881        68.6783 
  26   0.0000       2.785013        75.7841 
  27   0.0000       2.785013        75.7841 
  28   0.0000       2.785013        75.7841 
  29   0.0000       2.785013        75.7841 
  30   0.0000       2.785015        75.7841 
  31   0.0000      36.048859       980.9393 
  32   0.0000     115.427337      3140.9375 

Warning: MO coefficients are modified such that the real solid harmonic m components
have the correct order within each shell (0, +1, -1, +2, -2, ...) and all s orbitals
come before all p orbitals etc. (with increasing orbital energy within each block of given angular momentum).

CleanUpVectors: The d-vectors have cracked symmetry at i=4
CleanUpVectors: The d-vectors have cracked symmetry at i=5
CleanUpVectors: The d-vectors have cracked symmetry at i=6
CleanUpVectors: The d-vectors have cracked symmetry at i=7
CleanUpVectors: The d-vectors have cracked symmetry at i=8
--------------------------
ATOM BASIS FOR ELEMENT Cd
--------------------------
 NewGTO Cd
 S 7
    1         20.000000000000        -0.179652334271
    2         16.309051661000         0.383410323018
    3          6.451270990100        -0.743083780219
    4          1.535004739000         0.950867639980
    5          0.689836315200         0.474094996895
    6          0.134757209800        -0.135035182784
    7          0.047416874500        -0.133146310056
 D 20
    1         20.000000000000         0.000000007806
    2         16.309051661000        -0.000000020431
    3          6.451270990100         0.000000105971
    4          1.535004739000        -0.000000718391
    5          0.689836315200        -0.000001137801
    6          0.134757209800         0.000011040380
    7          0.047416874500         0.000046161322
    8         30.380789793000        -0.000180963700
    9         11.474551578000         0.000790247307
   10          3.050739490300        -0.013879719239
   11          1.362202852400        -0.024969300938
   12         30.380789793000        -0.000028112426
   13         11.474551578000         0.000122763674
   14          3.050739490300        -0.002156192521
   15          1.362202852400        -0.003878941570
   16         30.380789793000         0.000442425033
   17         11.474551578000        -0.001932018354
   18          3.050739490300         0.033933519414
   19          1.362202852400         0.061045633815
   20         30.380789793000         0.000248662614
 S 7
    1         20.000000000000        -1.721062912636
    2         16.309051661000         3.673057129743
    3          6.451270990100        -3.496428998378
    4          1.535004739000         2.271634984731
    5          0.689836315200        -1.367625057730
    6          0.134757209800         0.376017024677
    7          0.047416874500        -0.153159159468
 S 7
    1         20.000000000000        -1.861178170827
    2         16.309051661000         3.972088236803
    3          6.451270990100        -1.668178594361
    4          1.535004739000         0.751746393255
    5          0.689836315200        -0.430651657850
    6          0.134757209800         0.116871065803
    7          0.047416874500        -0.047707700065
 P 7
    1         14.000681404000        -0.069353430867
    2          8.309401987200         0.254275713646
    3          2.202005812200        -0.492154341781
    4          1.077924613700        -0.497167191610
    5          0.501118798500        -0.164994402869
    6          0.160000000000        -0.008633796481
    7          0.051600000000         0.000393674111
 D 20
    1         30.380789793000        -0.000503430011
    2         11.474551578000         0.002198419955
    3          3.050739490300        -0.038612534946
    4          1.362202852400        -0.069463076912
    5         30.380789793000         0.002306643897
    6         11.474551578000        -0.010072844011
    7          3.050739490300         0.176917081083
    8          1.362202852400         0.318269826822
    9         30.380789793000        -0.002195170356
   10         11.474551578000         0.009586052102
   11          3.050739490300        -0.168367181617
   12          1.362202852400        -0.302888751089
   13         30.380789793000         0.000357738388
   14         11.474551578000        -0.001562201684
   15          3.050739490300         0.027438145742
   16          1.362202852400         0.049360603511
   17         30.380789793000        -0.000266704765
   18         11.474551578000         0.001164668504
   19          3.050739490300        -0.020455965751
   20          1.362202852400        -0.036799819650
 P 7
    1         14.000681404000        -0.012200521119
    2          8.309401987200         0.044731690639
    3          2.202005812200        -0.086578837781
    4          1.077924613700        -0.087460688605
    5          0.501118798500         0.007490971264
    6          0.160000000000         0.064388979164
    7          0.051600000000         0.957997146550
 P 7
    1         14.000681404000        -0.019609233598
    2          8.309401987200         0.071894811905
    3          2.202005812200        -0.139153454033
    4          1.077924613700        -0.140570804870
    5          0.501118798500        -0.307767790152
    6          0.160000000000         1.646491398965
    7          0.051600000000        -1.080146652141
 P 7
    1         14.000681404000        -0.113153254334
    2          8.309401987200         0.414862309439
    3          2.202005812200        -0.802972033404
    4          1.077924613700        -0.811150724271
    5          0.501118798500         2.310233442860
    6          0.160000000000        -1.411044557644
    7          0.051600000000         0.475377687717
 D 6
    1         30.380789793000         0.001232711569
    2         11.474551578000        -0.005383107188
    3          3.050739490300         0.094547638170
    4          1.362202852400         0.170089062302
    5          0.563994098900         0.463232254958
    6          0.209166865400        -1.200808681467
 D 6
    1         30.380789793000         0.005731052442
    2         11.474551578000        -0.025026835460
    3          3.050739490300         0.439565496427
    4          1.362202852400         0.790768384648
    5          0.563994098900        -1.653995868841
    6          0.209166865400         0.736056595845
 end
-------------------------------------------
RADIAL EXPECTATION VALUES <R**-3> TO <R**3>
-------------------------------------------
   0 :     0.000000     1.673457     1.225084     0.962386     1.300485     3.092884
   1 :     1.374332     1.034307     0.932879     1.272820     1.924468    17.245243
   2 :     1.373925     1.034075     0.932732     1.273286     1.926772    17.252781
   3 :     0.000000     0.174282     0.385969     3.027066    10.656562    43.196635
   4 :     0.000000     0.147513     0.298638     4.553920    24.470734   144.220333
   5 :     0.000000     0.968257     0.832070     1.778886     4.863932    19.715611
   6 :     0.000000     7.273599     2.369257     0.547149     0.528435     1.268980
   7 :     0.000000    71.688873     6.740818     0.208757     0.083191     0.130841
   8 :     2.031047     1.432048     1.133010     0.982985     1.076003     1.311968
   9 :     2.031047     1.432048     1.133010     0.982985     1.076003     1.311968
  10 :     2.031047     1.432048     1.133010     0.982985     1.076003     1.311968
  11 :     1.374322     1.034299     0.932874     1.272837     1.924543    17.246570
  12 :     1.374322     1.034299     0.932874     1.272837     1.924544    17.246585
  13 :     1.374325     1.034301     0.932875     1.272835     1.924536    17.246459
  14 :     0.046071     0.083116     0.252978     4.571431    23.238822   128.929124
  15 :     0.046071     0.083116     0.252978     4.571430    23.238815   128.929071
  16 :     0.046071     0.083116     0.252978     4.571431    23.238822   128.929125
  17 :     0.139344     0.172195     0.345039     3.875364    19.002364   109.990775
  18 :     0.139344     0.172195     0.345039     3.875365    19.002369   109.990813
  19 :     0.139344     0.172195     0.345039     3.875364    19.002364   109.990775
  20 :     0.834354     0.643200     0.677984     2.104958     6.363717    26.778447
  21 :     0.834353     0.643200     0.677984     2.104958     6.363720    26.778462
  22 :     0.834354     0.643200     0.677984     2.104958     6.363717    26.778447
  23 :     0.235579     0.240512     0.407516     2.942100     9.440307   159.813169
  24 :     0.235601     0.240526     0.407525     2.942080     9.440228   159.811852
  25 :     0.235602     0.240526     0.407525     2.942079     9.440225   159.811790
  26 :     0.235601     0.240526     0.407525     2.942080     9.440227   159.811827
  27 :     0.235599     0.240525     0.407524     2.942082     9.440234   159.811942
  28 :     1.505079     0.969078     0.826112     1.719420     3.914309    54.737008
  29 :     1.505067     0.969071     0.826109     1.719423     3.914316    54.737051
  30 :     1.505067     0.969072     0.826109     1.719423     3.914316    54.737048
  31 :     1.505066     0.969071     0.826109     1.719423     3.914316    54.737052
  32 :     1.505065     0.969071     0.826108     1.719424     3.914317    54.737060
Making the total density                ... o.k.
o.k.
Initializing the integrals              ... done
Making exponents                        ... done
Making rho(0)                           ... done (         0.000989705)
Integral calculation                    ... Two index integrals                     ... done
Solving the equation system             ... done
atomic density will be written to file CdCl5_atom48.adf

-------
TIMINGS
-------

Total SCF time: 0 days 0 hours 0 min 1 sec 

Total time                  ....       1.247 sec
Sum of individual times     ....       0.317 sec  ( 25.4%)

Fock matrix formation       ....       0.022 sec  (  1.8%)
Diagonalization             ....       0.293 sec  ( 23.5%)
Density matrix formation    ....       0.000 sec  (  0.0%)
Population analysis         ....       0.000 sec  (  0.0%)
Initial guess               ....       0.000 sec  (  0.0%)
Orbital Transformation      ....       0.000 sec  (  0.0%)
Orbital Orthonormalization  ....       0.000 sec  (  0.0%)
DIIS solution               ....       0.002 sec  (  0.2%)

Maximum memory used throughout the entire SCF-calculation: 226.8 MB

-------------------------   --------------------
FINAL SINGLE POINT ENERGY      -166.883922774048
-------------------------   --------------------


                            ***************************************
                            *     ORCA property calculations      *
                            ***************************************

                                    ---------------------
                                    Active property flags
                                    ---------------------
   (+) Dipole Moment


------------------------------------------------------------------------------
                       ORCA ELECTRIC PROPERTIES CALCULATION
------------------------------------------------------------------------------

Dipole Moment Calculation                       ... on
Quadrupole Moment Calculation                   ... off
Polarizability Calculation                      ... off
GBWName                                         ... CdCl5_atom48.gbw
Electron density                                ... CdCl5_atom48.scfp
The origin for moment calculation is the CENTER OF MASS  = ( 0.000000,  0.000000  0.000000)

-------------
DIPOLE MOMENT
-------------
                                X             Y             Z
Electronic contribution:     -0.00000       0.00000       0.00000
Nuclear contribution   :      0.00000       0.00000       0.00000
                        -----------------------------------------
Total Dipole Moment    :     -0.00000       0.00000       0.00000
                        -----------------------------------------
Magnitude (a.u.)       :      0.00000
Magnitude (Debye)      :      0.00000



--------------------
Rotational spectrum 
--------------------
 
Rotational constants in cm-1:     0.000000     0.000000     0.000000 
Rotational constants in MHz :     0.000000     0.000000     0.000000 

 Dipole components along the rotational axes: 
x,y,z [a.u.] :    -0.000000     0.000000     0.000000 
x,y,z [Debye]:    -0.000000     0.000000     0.000000 

 

Timings for individual modules:

Sum of individual times         ...        1.353 sec (=   0.023 min)
GTO integral calculation        ...        0.096 sec (=   0.002 min)   7.1 %
SCF iterations                  ...        1.257 sec (=   0.021 min)  92.9 %
                             ****ORCA TERMINATED NORMALLY****
TOTAL RUN TIME: 0 days 0 hours 0 minutes 1 seconds 425 msec
