
                                 *****************
                                 * O   R   C   A *
                                 *****************

                                            #,                                       
                                            ###                                      
                                            ####                                     
                                            #####                                    
                                            ######                                   
                                           ########,                                 
                                     ,,################,,,,,                         
                               ,,#################################,,                 
                          ,,##########################################,,             
                       ,#########################################, ''#####,          
                    ,#############################################,,   '####,        
                  ,##################################################,,,,####,       
                ,###########''''           ''''###############################       
              ,#####''   ,,,,##########,,,,          '''####'''          '####       
            ,##' ,,,,###########################,,,                        '##       
           ' ,,###''''                  '''############,,,                           
         ,,##''                                '''############,,,,        ,,,,,,###''
      ,#''                                            '''#######################'''  
     '                                                          ''''####''''         
             ,#######,   #######,   ,#######,      ##                                
            ,#'     '#,  ##    ##  ,#'     '#,    #''#        ######   ,####,        
            ##       ##  ##   ,#'  ##            #'  '#       #        #'  '#        
            ##       ##  #######   ##           ,######,      #####,   #    #        
            '#,     ,#'  ##    ##  '#,     ,#' ,#      #,         ##   #,  ,#        
             '#######'   ##     ##  '#######'  #'      '#     #####' # '####'        



                  #######################################################
                  #                        -***-                        #
                  #          Department of theory and spectroscopy      #
                  #    Directorship and core code : Frank Neese         #
                  #        Max Planck Institute fuer Kohlenforschung    #
                  #                Kaiser Wilhelm Platz 1               #
                  #                 D-45470 Muelheim/Ruhr               #
                  #                      Germany                        #
                  #                                                     #
                  #                  All rights reserved                #
                  #                        -***-                        #
                  #######################################################


                         Program Version 5.0.4 -  RELEASE  -


 With contributions from (in alphabetic order):
   Daniel Aravena         : Magnetic Suceptibility
   Michael Atanasov       : Ab Initio Ligand Field Theory (pilot matlab implementation)
   Alexander A. Auer      : GIAO ZORA, VPT2 properties, NMR spectrum
   Ute Becker             : Parallelization
   Giovanni Bistoni       : ED, misc. LED, open-shell LED, HFLD
   Martin Brehm           : Molecular dynamics
   Dmytro Bykov           : SCF Hessian
   Vijay G. Chilkuri      : MRCI spin determinant printing, contributions to CSF-ICE
   Dipayan Datta          : RHF DLPNO-CCSD density
   Achintya Kumar Dutta   : EOM-CC, STEOM-CC
   Dmitry Ganyushin       : Spin-Orbit,Spin-Spin,Magnetic field MRCI
   Miquel Garcia          : C-PCM and meta-GGA Hessian, CC/C-PCM, Gaussian charge scheme
   Yang Guo               : DLPNO-NEVPT2, F12-NEVPT2, CIM, IAO-localization
   Andreas Hansen         : Spin unrestricted coupled pair/coupled cluster methods
   Benjamin Helmich-Paris : MC-RPA, TRAH-SCF, COSX integrals
   Lee Huntington         : MR-EOM, pCC
   Robert Izsak           : Overlap fitted RIJCOSX, COSX-SCS-MP3, EOM
   Marcus Kettner         : VPT2
   Christian Kollmar      : KDIIS, OOCD, Brueckner-CCSD(T), CCSD density, CASPT2, CASPT2-K
   Simone Kossmann        : Meta GGA functionals, TD-DFT gradient, OOMP2, MP2 Hessian
   Martin Krupicka        : Initial AUTO-CI
   Lucas Lang             : DCDCAS
   Marvin Lechner         : AUTO-CI (C++ implementation), FIC-MRCC
   Dagmar Lenk            : GEPOL surface, SMD
   Dimitrios Liakos       : Extrapolation schemes; Compound Job, initial MDCI parallelization
   Dimitrios Manganas     : Further ROCIS development; embedding schemes
   Dimitrios Pantazis     : SARC Basis sets
   Anastasios Papadopoulos: AUTO-CI, single reference methods and gradients
   Taras Petrenko         : DFT Hessian,TD-DFT gradient, ASA, ECA, R-Raman, ABS, FL, XAS/XES, NRVS
   Peter Pinski           : DLPNO-MP2, DLPNO-MP2 Gradient
   Christoph Reimann      : Effective Core Potentials
   Marius Retegan         : Local ZFS, SOC
   Christoph Riplinger    : Optimizer, TS searches, QM/MM, DLPNO-CCSD(T), (RO)-DLPNO pert. Triples
   Tobias Risthaus        : Range-separated hybrids, TD-DFT gradient, RPA, STAB
   Michael Roemelt        : Original ROCIS implementation
   Masaaki Saitow         : Open-shell DLPNO-CCSD energy and density
   Barbara Sandhoefer     : DKH picture change effects
   Avijit Sen             : IP-ROCIS
   Kantharuban Sivalingam : CASSCF convergence, NEVPT2, FIC-MRCI
   Bernardo de Souza      : ESD, SOC TD-DFT
   Georgi Stoychev        : AutoAux, RI-MP2 NMR, DLPNO-MP2 response
   Willem Van den Heuvel  : Paramagnetic NMR
   Boris Wezisla          : Elementary symmetry handling
   Frank Wennmohs         : Technical directorship


 We gratefully acknowledge several colleagues who have allowed us to
 interface, adapt or use parts of their codes:
   Stefan Grimme, W. Hujo, H. Kruse, P. Pracht,  : VdW corrections, initial TS optimization,
                  C. Bannwarth, S. Ehlert          DFT functionals, gCP, sTDA/sTD-DF
   Ed Valeev, F. Pavosevic, A. Kumar             : LibInt (2-el integral package), F12 methods
   Garnet Chan, S. Sharma, J. Yang, R. Olivares  : DMRG
   Ulf Ekstrom                                   : XCFun DFT Library
   Mihaly Kallay                                 : mrcc  (arbitrary order and MRCC methods)
   Jiri Pittner, Ondrej Demel                    : Mk-CCSD
   Frank Weinhold                                : gennbo (NPA and NBO analysis)
   Christopher J. Cramer and Donald G. Truhlar   : smd solvation model
   Lars Goerigk                                  : TD-DFT with DH, B97 family of functionals
   V. Asgeirsson, H. Jonsson                     : NEB implementation
   FAccTs GmbH                                   : IRC, NEB, NEB-TS, DLPNO-Multilevel, CI-OPT
                                                   MM, QMMM, 2- and 3-layer-ONIOM, Crystal-QMMM,
                                                   LR-CPCM, SF, NACMEs, symmetry and pop. for TD-DFT,
                                                   nearIR, NL-DFT gradient (VV10), updates on ESD,
                                                   ML-optimized integration grids
   S Lehtola, MJT Oliveira, MAL Marques          : LibXC Library
   Liviu Ungur et al                             : ANISO software


 Your calculation uses the libint2 library for the computation of 2-el integrals
 For citations please refer to: http://libint.valeyev.net

 Your ORCA version has been built with support for libXC version: 5.1.0
 For citations please refer to: https://tddft.org/programs/libxc/

 This ORCA versions uses:
   CBLAS   interface :  Fast vector & matrix operations
   LAPACKE interface :  Fast linear algebra routines
   SCALAPACK package :  Parallel linear algebra routines
   Shared memory     :  Shared parallel matrices
   BLAS/LAPACK       :  OpenBLAS 0.3.15  USE64BITINT DYNAMIC_ARCH NO_AFFINITY Haswell SINGLE_THREADED
        Core in use  :  Haswell
   Copyright (c) 2011-2014, The OpenBLAS Project


================================================================================

----- Orbital basis set information -----
Your calculation utilizes the basis: def2-SVP
   F. Weigend and R. Ahlrichs, Phys. Chem. Chem. Phys. 7, 3297 (2005).

The basis set includes element-specific modifications.

----- AuxJ basis set information -----
Your calculation utilizes the auxiliary basis: def2/J
   F. Weigend, Phys. Chem. Chem. Phys. 8, 1057 (2006).

The basis set includes element-specific modifications.

================================================================================
                                        WARNINGS
                       Please study these warnings very carefully!
================================================================================


INFO   : the flag for use of the SHARK integral package has been found!


WARNING: TRAH-SCF with ROHF wave function is not implemented yet
  ===> : Turning TRAH off

================================================================================
                                       INPUT FILE
================================================================================
NAME = WCl4_atom74.inp
|  1> # input to generate an atomic fitting density for W 
|  2> # this file is used internally by ORCA
|  3> #
|  4> # atomic ground state (S=5): 1s2 2s2 2p6 3s2 3p6 4s2 3d10 4p6 5s2 4d10 5p6 6s2 4f14 5d4 
|  5> #
|  6> ! RHF AllowRHF def2-SVP def2/J  NoMulliken NoLoewdin NoMayer NoPrintMOs 
|  7> 
|  8> %output print[p_atomdensfit] 2 end
|  9> 
| 10> %scf
| 11>   guess hcore
| 12>   maxiter 1000
| 13>   maxdisk 500000
| 14>   SCFMode Conventional
| 15>   lshift 0.500000
| 16>   hftyp rohf
| 17>   rohf_case sahf
| 18>   rohf_numop   2
| 19>   rohf_norb[1] 5
| 20>   rohf_nel[1]  4
| 21> end
| 22> 
| 23> %basis
| 24>   NewECP 74
| 25>     N_core 60
| 26>     lmax f
| 27>     s 3
| 28>       1      14.3228564000   1192.3958823000  2
| 29>       2       7.1614281000     32.5229332000  2
| 30>       3       2.2588885000    -14.1525795000  2
| 31>     p 3
| 32>       1      10.0216411000    359.0319671000  2
| 33>       2       5.0108204000     24.0303802000  2
| 34>       3       2.2588885000    -14.1525795000  2
| 35>     d 3
| 36>       1       6.5979974000    108.3013490000  2
| 37>       2       3.2989987000     10.9825283000  2
| 38>       3       2.2588885000    -14.1525795000  2
| 39>     f 1
| 40>       1       2.2588885000     14.1525795000  2
| 41>   end
| 42>   NewGTO 74
| 43>     s 3 
| 44>      1      30.0000000000      1.1087519451
| 45>      2      27.0000000000     -1.6054504407
| 46>      3      13.0780456840      1.4681670492
| 47>     s 1 
| 48>      1       4.8100449717      1.0000000000
| 49>     s 1 
| 50>      1       0.9849780426      1.0000000000
| 51>     s 1 
| 52>      1       0.4491048534      1.0000000000
| 53>     s 1 
| 54>      1       0.1144835292      1.0000000000
| 55>     s 1 
| 56>      1       0.0417204220      1.0000000000
| 57>     p 4 
| 58>      1      17.0000000000     -0.0915365247
| 59>      2      12.4319734320      0.2639678450
| 60>      3       5.1586217658     -0.7116151539
| 61>      4       1.2801454812      1.2480085239
| 62>     p 1 
| 63>      1       0.6285679090      1.0000000000
| 64>     p 1 
| 65>      1       0.2938042355      1.0000000000
| 66>     p 1 
| 67>      1       0.0650000000      1.0000000000
| 68>     d 4 
| 69>      1       7.4064737315      0.0625854177
| 70>      2       5.9026268603     -0.1271042649
| 71>      3       1.2984756750      0.3967305737
| 72>      4       0.5715350854      0.6857074962
| 73>     d 1 
| 74>      1       0.2384552661      1.0000000000
| 75>     d 1 
| 76>      1       0.0911442673      1.0000000000
| 77>     f 1 
| 78>      1       0.4319900000      1.0000000000
| 79>   end
| 80>   NewAuxGTO 74
| 81>     S 1
| 82>      1 1310.72 1.0
| 83>     S 1
| 84>      1  655.36 1.0
| 85>     S 1
| 86>      1  327.68 1.0
| 87>     S 1
| 88>      1  163.84 1.0
| 89>     S 1
| 90>      1   81.82 1.0
| 91>     S 1
| 92>      1   40.96 1.0
| 93>     S 1
| 94>      1   20.48 1.0
| 95>     S 1
| 96>      1   10.24 1.0
| 97>     S 1
| 98>      1    5.12 1.0
| 99>     S 1
|100>      1    2.56 1.0
|101>     S 1
|102>      1    1.28 1.0
|103>     S 1
|104>      1    0.64 1.0
|105>     S 1
|106>      1    0.32 1.0
|107>     S 1
|108>      1    0.16 1.0
|109>     S 1
|110>      1    0.08 1.0
|111>     S 1
|112>      1    0.04 1.0
|113>     S 1
|114>      1    0.02 1.0
|115>     S 1
|116>      1    0.01 1.0
|117>   end
|118> end
|119> 
|120> * xyz 0 5
|121> 74  0.0 0.0 0.0
|122> *
|123> 
|124> 
|125>                          ****END OF INPUT****
================================================================================

                       ****************************
                       * Single Point Calculation *
                       ****************************

---------------------------------
CARTESIAN COORDINATES (ANGSTROEM)
---------------------------------
  W      0.000000    0.000000    0.000000

----------------------------
CARTESIAN COORDINATES (A.U.)
----------------------------
  NO LB      ZA    FRAG     MASS         X           Y           Z
   0 W    14.0000*   0   183.850    0.000000    0.000000    0.000000
* core charge reduced due to ECP

--------------------------------
INTERNAL COORDINATES (ANGSTROEM)
--------------------------------
 W      0   0   0     0.000000000000     0.00000000     0.00000000

---------------------------
INTERNAL COORDINATES (A.U.)
---------------------------
 W      0   0   0     0.000000000000     0.00000000     0.00000000

---------------------
BASIS SET INFORMATION
---------------------
There are 1 groups of distinct atoms

 Group   1 Type W   : 8s7p6d1f contracted to 6s4p3d1f pattern {311111/4111/411/1}

Atom   0W    basis set group =>   1
---------------------------------
AUXILIARY/J BASIS SET INFORMATION
---------------------------------
There are 1 groups of distinct atoms

 Group   1 Type W   : 18s contracted to 18s pattern {111111111111111111}

Atom   0W    basis set group =>   1
-------------------------
ECP PARAMETER INFORMATION
-------------------------

 Group 1, Type W  ECP (replacing 60 core electrons, lmax=3)

Atom   0W    ECP group =>   1

------------------------------------------------------------------------------
                           ORCA GTO INTEGRAL CALCULATION
------------------------------------------------------------------------------
------------------------------------------------------------------------------
                   ___                                                        
                  /   \      - P O W E R E D   B Y -                         
                 /     \                                                     
                 |  |  |   _    _      __       _____    __    __             
                 |  |  |  | |  | |    /  \     |  _  \  |  |  /  |          
                  \  \/   | |  | |   /    \    | | | |  |  | /  /          
                 / \  \   | |__| |  /  /\  \   | |_| |  |  |/  /          
                |  |  |   |  __  | /  /__\  \  |    /   |      \           
                |  |  |   | |  | | |   __   |  |    \   |  |\   \          
                \     /   | |  | | |  |  |  |  | |\  \  |  | \   \       
                 \___/    |_|  |_| |__|  |__|  |_| \__\ |__|  \__/        
                                                                              
                      - O R C A' S   B I G   F R I E N D -                    
                                      &                                       
                       - I N T E G R A L  F E E D E R -                       
                                                                              
 v1 FN, 2020, v2 2021                                                         
------------------------------------------------------------------------------


Reading SHARK input file WCl4_atom74.SHARKINP.tmp ... ok
----------------------
SHARK INTEGRAL PACKAGE
----------------------

Number of atoms                             ...      1
Number of basis functions                   ...     40
Number of shells                            ...     14
Maximum angular momentum                    ...      3
Integral batch strategy                     ... SHARK/LIBINT Hybrid
RI-J (if used) integral strategy            ... SPLIT-RIJ (Revised 2003 algorithm where possible)
Printlevel                                  ...      1
Contraction scheme used                     ... SEGMENTED contraction
Coulomb Range Separation                    ... NOT USED
Exchange Range Separation                   ... NOT USED
Finite Nucleus Model                        ... NOT USED
Auxiliary Coulomb fitting basis             ... AVAILABLE
   # of basis functions in Aux-J            ...     18
   # of shells in Aux-J                     ...     18
   Maximum angular momentum in Aux-J        ...      0
Auxiliary J/K fitting basis                 ... NOT available
Auxiliary Correlation fitting basis         ... NOT available
Auxiliary 'external' fitting basis          ... NOT available
Integral threshold                          ...     1.000000e-10
Primitive cut-off                           ...     1.000000e-11
Primitive pair pre-selection threshold      ...     1.000000e-11

Calculating pre-screening integrals         ... done (  0.0 sec) Dimension = 14
Organizing shell pair data                  ... done (  0.0 sec)
Shell pair information
Total number of shell pairs                 ...       105
Shell pairs after pre-screening             ...       105
Total number of primitive shell pairs       ...       268
Primitive shell pairs kept                  ...       268
          la=0 lb=0:     21 shell pairs
          la=1 lb=0:     24 shell pairs
          la=1 lb=1:     10 shell pairs
          la=2 lb=0:     18 shell pairs
          la=2 lb=1:     12 shell pairs
          la=2 lb=2:      6 shell pairs
          la=3 lb=0:      6 shell pairs
          la=3 lb=1:      4 shell pairs
          la=3 lb=2:      3 shell pairs
          la=3 lb=3:      1 shell pairs

Calculating one electron integrals          ... done (  0.0 sec)
Calculating ECP integrals                   ... done (  0.0 sec)
Calculating RI/J V-Matrix + Cholesky decomp.... done (  0.0 sec)
Calculating Nuclear repulsion               ... done (  0.0 sec) ENN=      0.000000000000 Eh
Calculating 4-index integrals               ... 
    -> SHARK/Ints2Disk: Thresh =     1.000000e-10 TCut=    1.000000e-11 
    -> calling libint FockFlag=2 Lmax_loc=3
    -> L=0 0 1 3:     0.000 sec done=        84 (=100.0%) skipped=         0 
    -> L=0 1 0 3:     0.000 sec done=       144 (=100.0%) skipped=         0 
    -> L=0 1 1 3:     0.000 sec done=        96 (=100.0%) skipped=         0 
    -> L=0 1 2 2:     0.001 sec done=       144 (=100.0%) skipped=         0 
    -> L=0 1 3 3:     0.000 sec done=        24 (=100.0%) skipped=         0 
    -> L=0 2 0 3:     0.000 sec done=       108 (=100.0%) skipped=         0 
    -> L=0 2 1 3:     0.000 sec done=        72 (=100.0%) skipped=         0 
    -> L=0 2 2 2:     0.001 sec done=       108 (=100.0%) skipped=         0 
    -> L=0 3 0 3:     0.000 sec done=        21 (=100.0%) skipped=         0 
    -> L=0 3 1 1:     0.000 sec done=        60 (=100.0%) skipped=         0 
    -> L=0 3 1 2:     0.000 sec done=        72 (=100.0%) skipped=         0 
    -> L=0 3 1 3:     0.000 sec done=        24 (=100.0%) skipped=         0 
    -> L=0 3 2 2:     0.000 sec done=        36 (=100.0%) skipped=         0 
    -> L=1 1 1 2:     0.001 sec done=       120 (=100.0%) skipped=         0 
    -> L=1 1 1 3:     0.000 sec done=        40 (=100.0%) skipped=         0 
    -> L=1 1 2 2:     0.001 sec done=        60 (=100.0%) skipped=         0 
    -> L=1 2 1 2:     0.001 sec done=        78 (=100.0%) skipped=         0 
    -> L=1 2 1 3:     0.001 sec done=        48 (=100.0%) skipped=         0 
    -> L=1 2 2 2:     0.002 sec done=        72 (=100.0%) skipped=         0 
    -> L=1 3 1 3:     0.000 sec done=        10 (=100.0%) skipped=         0 
    -> L=1 3 2 2:     0.001 sec done=        24 (=100.0%) skipped=         0 
    -> L=2 2 2 2:     0.002 sec done=        21 (=100.0%) skipped=         0 
    ->Total LIBINT loop time =    0.011 sec
    -> L=0 0 0 0:     0.000 sec done=       231 (=100.0%) skipped=         0 
    -> L=1 0 0 0:     0.000 sec done=       504 (=100.0%) skipped=         0 
    -> L=1 0 1 0:     0.000 sec done=       300 (=100.0%) skipped=         0 
    -> L=1 1 0 0:     0.000 sec done=       210 (=100.0%) skipped=         0 
    -> L=1 1 1 0:     0.000 sec done=       240 (=100.0%) skipped=         0 
    -> L=1 1 1 1:     0.000 sec done=        55 (=100.0%) skipped=         0 
    -> L=2 0 0 0:     0.000 sec done=       378 (=100.0%) skipped=         0 
    -> L=2 0 1 0:     0.000 sec done=       432 (=100.0%) skipped=         0 
    -> L=2 0 1 1:     0.000 sec done=       180 (=100.0%) skipped=         0 
    -> L=2 0 2 0:     0.000 sec done=       171 (=100.0%) skipped=         0 
    -> L=2 1 0 0:     0.000 sec done=       252 (=100.0%) skipped=         0 
    -> L=2 1 1 0:     0.001 sec done=       288 (=100.0%) skipped=         0 
    -> L=2 1 2 0:     0.001 sec done=       216 (=100.0%) skipped=         0 
    -> L=2 2 0 0:     0.000 sec done=       126 (=100.0%) skipped=         0 
    -> L=3 0 0 0:     0.000 sec done=       126 (=100.0%) skipped=         0 
    -> L=3 2 0 0:     0.000 sec done=        63 (=100.0%) skipped=         0 
    -> L=3 2 1 0:     0.001 sec done=        72 (=100.0%) skipped=         0 
    -> L=3 2 1 1:     0.000 sec done=        30 (=100.0%) skipped=         0 
    -> L=3 2 2 0:     0.001 sec done=        54 (=100.0%) skipped=         0 
    -> L=3 2 2 1:     0.001 sec done=        36 (=100.0%) skipped=         0 
    -> L=3 2 2 2:     0.002 sec done=        18 (=100.0%) skipped=         0 
    -> L=3 2 3 0:     0.000 sec done=        18 (=100.0%) skipped=         0 
    -> L=3 2 3 1:     0.001 sec done=        12 (=100.0%) skipped=         0 
    -> L=3 2 3 2:     0.000 sec done=         6 (=100.0%) skipped=         0 
    -> L=3 3 0 0:     0.000 sec done=        21 (=100.0%) skipped=         0 
    -> L=3 3 1 1:     0.000 sec done=        10 (=100.0%) skipped=         0 
    -> L=3 3 2 0:     0.000 sec done=        18 (=100.0%) skipped=         0 
    -> L=3 3 2 1:     0.000 sec done=        12 (=100.0%) skipped=         0 
    -> L=3 3 2 2:     0.001 sec done=         6 (=100.0%) skipped=         0 
    -> L=3 3 3 0:     0.000 sec done=         6 (=100.0%) skipped=         0 
    -> L=3 3 3 1:     0.000 sec done=         4 (=100.0%) skipped=         0 
    -> L=3 3 3 2:     0.000 sec done=         3 (=100.0%) skipped=         0 
    -> L=3 3 3 3:     0.000 sec done=         1 (=100.0%) skipped=         0 
    ->Total SHARK integral loop time =    0.012 sec
    -> Total Integral generation matrix time =    0.026 sec
    -> Number of small integrals   =         0
    -> Number of medium integrals  =        27
    -> Number of large integrals   =     36502
    -> Number of MB stored         =         0 MB


SHARK setup successfully completed in   0.1 seconds

Maximum memory used throughout the entire GTOINT-calculation: 35.5 MB
-------------------------------------------------------------------------------
                                 ORCA SCF
-------------------------------------------------------------------------------

------------
SCF SETTINGS
------------
Hamiltonian:
 Ab initio Hamiltonian  Method          .... Hartree-Fock(GTOs)


General Settings:
 Integral files         IntName         .... WCl4_atom74
 Hartree-Fock type      HFTyp           .... ROHF
 Total Charge           Charge          ....    0
 Multiplicity           Mult            ....    5
 Number of Electrons    NEL             ....   14
 Basis Dimension        Dim             ....   40
 Nuclear Repulsion      ENuc            ....      0.0000000000 Eh

Convergence Acceleration:
 DIIS                   CNVDIIS         .... on
   Start iteration      DIISMaxIt       ....    12
   Startup error        DIISStart       ....  0.200000
   # of expansion vecs  DIISMaxEq       ....     5
   Bias factor          DIISBfac        ....   1.050
   Max. coefficient     DIISMaxC        ....  10.000
 Trust-Rad. Augm. Hess. CNVTRAH         .... off
 SOSCF                  CNVSOSCF        .... off
 Level Shifting         CNVShift        .... on
   Level shift para.    LevelShift      ....    0.5000
   Turn off err/grad.   ShiftErr        ....    0.0010
 Zerner damping         CNVZerner       .... off
 Static damping         CNVDamp         .... on
   Fraction old density DampFac         ....    0.7000
   Max. Damping (<1)    DampMax         ....    0.9800
   Min. Damping (>=0)   DampMin         ....    0.0000
   Turn off err/grad.   DampErr         ....    0.1000
 Fernandez-Rico         CNVRico         .... off

SCF Procedure:
 Maximum # iterations   MaxIter         ....  1000
 SCF integral mode      SCFMode         .... Conventional
 Integral Threshold     Thresh          ....  1.000e-10 Eh
 Primitive CutOff       TCut            ....  1.000e-11 Eh
 Integral Buffer length BufferLength    .... 1048576
 Integral index format  IndFormat       ....     0
 Integral value format  ValFormat       ....     0
 Integral Storage       Thresh          ....  1.000e-10 Eh

Convergence Tolerance:
 Convergence Check Mode ConvCheckMode   .... Total+1el-Energy
 Convergence forced     ConvForced      .... 0
 Energy Change          TolE            ....  1.000e-06 Eh
 1-El. energy change                    ....  1.000e-03 Eh
 DIIS Error             TolErr          ....  1.000e-06


Diagonalization of the overlap matrix:
Smallest eigenvalue                        ... 1.776e-02
Time for diagonalization                   ...    0.000 sec
Threshold for overlap eigenvalues          ... 1.000e-08
Number of eigenvalues below threshold      ... 0
Time for construction of square roots      ...    0.000 sec
Total time needed                          ...    0.000 sec

--------------------
INITIAL GUESS: HCORE
--------------------
AVERAGE-CONFIGURATION (SAHF) CASE FOUND

-------------------
FINAL ROHF SETTINGS
-------------------
Number of operators             ... 2
  operator   0:   5 orbitals  10 electrons n(mue)= 2.000
  operator   1:   5 orbitals   4 electrons n(mue)= 0.800
Vector coupling coefficients a and b (Zerner convention):
   1.000    1.000           1.000    1.000 
   1.000    0.938           1.000    1.875 

                      -----------------
                      INTIAL GUESS DONE 
                      -----------------

 InCore treatment chosen:
   Memory dedicated               ...    1024 MB
   Memory needed                  ...      0 MB
   Number of tiny    integrals    ...       0
   Number of small   integrals    ...      27
   Number of regular integrals    ...   36502

--------------
SCF ITERATIONS
--------------
ITER       Energy         Delta-E        Max-DP      RMS-DP      [F,P]     Damp
  0    -61.6988339156   0.000000000000 2.33171439  0.07324602  0.6096838 0.7000
  1    -64.6527092988  -2.953875383196 1.63066902  0.05052314  0.2321824 0.7000
                            ****Activating DIIS****
  2    -64.8334526080  -0.180743309182 3.79165290  0.11480178  0.0623133 0.0000
  3    -65.1705713790  -0.337118770981 0.00920615  0.00030709  0.1711556 0.7000
  4    -65.1867846514  -0.016213272427 0.00684662  0.00022422  0.1604408 0.7000
  5    -65.1892940174  -0.002509366015 0.03670019  0.00119166  0.1604353 0.7000
  6    -65.1242604909   0.065033526530 0.01473850  0.00048044  0.2019939 0.7000
  7    -65.1344697967  -0.010209305832 0.30059702  0.00927653  0.1908502 0.7000
  8    -65.4552698806  -0.320800083898 0.34679671  0.01040887  0.1057552 0.7000
  9    -65.5875828206  -0.132312940015 1.32528941  0.03574685  0.0876291 0.0000
 10    -65.8437544136  -0.256171593024 0.26776068  0.00795452  0.0539440 0.0000
 11    -65.8875470357  -0.043792622011 0.24970072  0.00656605  0.0291918 0.0000
 12    -65.9015760327  -0.014028997039 0.20663934  0.00477065  0.0151899 0.0000
 13    -65.9053904439  -0.003814411250 0.08733135  0.00192868  0.0061968 0.0000
 14    -65.9059627719  -0.000572327959 0.02133741  0.00059508  0.0027980 0.0000
 15    -65.9061405259  -0.000177754000 0.00975433  0.00035488  0.0017746 0.0000
 16    -65.9062116989  -0.000071172994 0.00455927  0.00021549  0.0016856 0.0000
 17    -65.9062368741  -0.000025175238 0.00386152  0.00014310  0.0016688 0.0000
 18    -65.9062446869  -0.000007812770 0.00330032  0.00008798  0.0016598 0.0000
 19    -65.9062468994  -0.000002212462 0.00274324  0.00006553  0.0016565 0.0000
 20    -65.9062478999  -0.000001000563 0.00243529  0.00005646  0.0016549 0.0000
                 **** Energy Check signals convergence ****

               *****************************************************
               *                     SUCCESS                       *
               *           SCF CONVERGED AFTER  21 CYCLES          *
               *****************************************************


----------------
TOTAL SCF ENERGY
----------------

Total Energy       :          -65.90624845 Eh           -1793.40019 eV

Components:
Nuclear Repulsion  :            0.00000000 Eh               0.00000 eV
Electronic Energy  :          -65.90624845 Eh           -1793.40019 eV
One Electron Energy:         -109.28088896 Eh           -2973.68417 eV
Two Electron Energy:           43.37464051 Eh            1180.28397 eV

Virial components:
Potential Energy   :          -88.07574385 Eh           -2396.66283 eV
Kinetic Energy     :           22.16949540 Eh             603.26264 eV
Virial Ratio       :            3.97283485


---------------
SCF CONVERGENCE
---------------

  Last Energy change         ...   -5.4667e-07  Tolerance :   1.0000e-06
  Last MAX-Density change    ...    1.8472e-03  Tolerance :   1.0000e-05
  Last RMS-Density change    ...    4.2420e-05  Tolerance :   1.0000e-06
  Last DIIS Error            ...    1.6536e-03  Tolerance :   1.0000e-06

             **** THE GBW FILE WAS UPDATED (WCl4_atom74.gbw) ****
             **** DENSITY WCl4_atom74.scfp WAS UPDATED ****
             **** ENERGY FILE WAS UPDATED (WCl4_atom74.en.tmp) ****
             **** THE GBW FILE WAS UPDATED (WCl4_atom74.gbw) ****
             **** DENSITY WCl4_atom74.scfp WAS UPDATED ****
----------------
ORBITAL ENERGIES
----------------

  NO   OCC          E(Eh)            E(eV) 
   0   2.0000      -3.672908       -99.9449 
   1   2.0000      -2.139305       -58.2135 
   2   2.0000      -2.134380       -58.0794 
   3   2.0000      -2.125922       -57.8493 
   4   2.0000      -0.508725       -13.8431 
   5   0.8000      -0.552994       -15.0477 
   6   0.8000      -0.480784       -13.0828 
   7   0.8000      -0.234983        -6.3942 
   8   0.8000      -0.227609        -6.1936 
   9   0.8000      -0.215526        -5.8648 
  10   0.0000      -0.201683        -5.4881 
  11   0.0000      -0.184289        -5.0148 
  12   0.0000      -0.174512        -4.7487 
  13   0.0000       0.079024         2.1503 
  14   0.0000       0.165500         4.5035 
  15   0.0000       0.172744         4.7006 
  16   0.0000       0.184743         5.0271 
  17   0.0000       0.190379         5.1805 
  18   0.0000       0.193888         5.2759 
  19   0.0000       0.559238        15.2176 
  20   0.0000       0.572525        15.5792 
  21   0.0000       0.595065        16.1925 
  22   0.0000       0.929754        25.2999 
  23   0.0000       0.927373        25.2351 
  24   0.0000       0.951238        25.8845 
  25   0.0000       0.961539        26.1648 
  26   0.0000       0.965608        26.2755 
  27   0.0000       0.955000        25.9869 
  28   0.0000       0.978873        26.6365 
  29   0.0000       1.030102        28.0305 
  30   0.0000       1.059114        28.8200 
  31   0.0000       1.059668        28.8350 
  32   0.0000       1.071335        29.1525 
  33   0.0000       1.078475        29.3468 
  34   0.0000       1.528626        41.5960 
  35   0.0000      36.189114       984.7558 
  36   0.0000      36.201437       985.0912 
  37   0.0000      36.224875       985.7290 
  38   0.0000      69.431876      1889.3374 
  39   0.0000     582.408389     15848.1380 

Warning: MO coefficients are modified such that the real solid harmonic m components
have the correct order within each shell (0, +1, -1, +2, -2, ...) and all s orbitals
come before all p orbitals etc. (with increasing orbital energy within each block of given angular momentum).

CleanUpVectors: The p-vectors have cracked symmetry
CleanUpVectors: The p-vectors have cracked symmetry
CleanUpVectors: The p-vectors have cracked symmetry
CleanUpVectors: The d-vectors have cracked symmetry at i=4
CleanUpVectors: The d-vectors have cracked symmetry at i=5
CleanUpVectors: The p-vectors have cracked symmetry
CleanUpVectors: The p-vectors have cracked symmetry
CleanUpVectors: The p-vectors have cracked symmetry
CleanUpVectors: The d-vectors have cracked symmetry at i=10
CleanUpVectors: The d-vectors have cracked symmetry at i=11
CleanUpVectors: The d-vectors have cracked symmetry at i=12
CleanUpVectors: The d-vectors have cracked symmetry at i=14
CleanUpVectors: The d-vectors have cracked symmetry at i=15
CleanUpVectors: The d-vectors have cracked symmetry at i=16
CleanUpVectors: The d-vectors have cracked symmetry at i=17
CleanUpVectors: The d-vectors have cracked symmetry at i=18
CleanUpVectors: The p-vectors have cracked symmetry
CleanUpVectors: The p-vectors have cracked symmetry
CleanUpVectors: The p-vectors have cracked symmetry
CleanUpVectors: The f-vectors have cracked symmetry
CleanUpVectors: The f-vectors have cracked symmetry
CleanUpVectors: The f-vectors have cracked symmetry
CleanUpVectors: The f-vectors have cracked symmetry
CleanUpVectors: The f-vectors have cracked symmetry
CleanUpVectors: The f-vectors have cracked symmetry
CleanUpVectors: The f-vectors have cracked symmetry
CleanUpVectors: The d-vectors have cracked symmetry at i=29
CleanUpVectors: The d-vectors have cracked symmetry at i=30
CleanUpVectors: The d-vectors have cracked symmetry at i=31
CleanUpVectors: The d-vectors have cracked symmetry at i=32
CleanUpVectors: The d-vectors have cracked symmetry at i=33
CleanUpVectors: The p-vectors have cracked symmetry
CleanUpVectors: The p-vectors have cracked symmetry
CleanUpVectors: The p-vectors have cracked symmetry
--------------------------
ATOM BASIS FOR ELEMENT W 
--------------------------
 NewGTO W 
 S 8
    1         30.000000000000        -0.328315523728
    2         27.000000000000         0.475394252599
    3         13.078045684000        -0.434742897912
    4          4.810044971700         0.830488700650
    5          0.984978042600        -0.946616509226
    6          0.449104853400        -0.367933790908
    7          0.114483529200        -0.003238854806
    8          0.041720422000        -0.000417069467
 P 22
    1         17.000000000000        -0.002990190990
    2         12.431973432000         0.008622943402
    3          5.158621765800        -0.023246078309
    4          1.280145481200         0.040768249126
    5         17.000000000000        -0.034222145935
    6         12.431973432000         0.098687885992
    7          5.158621765800        -0.266046779972
    8          1.280145481200         0.466584567996
    9         17.000000000000         0.013568723247
   10         12.431973432000        -0.039128715524
   11          5.158621765800         0.105484768114
   12          1.280145481200        -0.184995905479
   13          0.628567909000         0.042447603279
   14          0.628567909000         0.485804444945
   15          0.628567909000        -0.192616385845
   16          0.293804235500         0.010459930658
   17          0.293804235500         0.119711842723
   18          0.293804235500        -0.047464494671
   19          0.065000000000         0.000119737374
   20          0.065000000000         0.001370370623
   21          0.065000000000        -0.000543337632
   22          0.431990000000        -0.003204139274
 D 22
    1         30.000000000000        -0.000066922541
    2         27.000000000000         0.000107669431
    3         13.078045684000        -0.000203278713
    4          4.810044971700         0.001111628758
    5          0.984978042600        -0.010279699304
    6          0.449104853400         0.000387956117
    7          0.114483529200         0.095876779605
    8          0.041720422000        -0.015809701978
    9          7.406473731500        -0.024819654477
   10          5.902626860300         0.050406053890
   11          1.298475675000        -0.157332428566
   12          0.571535085400        -0.271932724157
   13          7.406473731500        -0.009526924434
   14          5.902626860300         0.019348160824
   15          1.298475675000        -0.060391419200
   16          0.571535085400        -0.104380281221
   17          7.406473731500        -0.034193775315
   18          5.902626860300         0.069443887015
   19          1.298475675000        -0.216755221843
   20          0.571535085400        -0.374638836306
   21          7.406473731500         0.004029848511
   22          5.902626860300        -0.008184189727
 S 8
    1         30.000000000000        -2.130337851983
    2         27.000000000000         3.084686217166
    3         13.078045684000        -2.820912154218
    4          4.810044971700         3.110508527759
    5          0.984978042600        -1.779243133136
    6          0.449104853400         1.231913681474
    7          0.114483529200        -0.420412408218
    8          0.041720422000         0.156616117988
 S 8
    1         30.000000000000        -2.059115035815
    2         27.000000000000         2.981557016707
    3         13.078045684000        -2.726601616760
    4          4.810044971700         1.219446448498
    5          0.984978042600        -0.571864035263
    6          0.449104853400         0.390157235327
    7          0.114483529200        -0.132854701768
    8          0.041720422000         0.049568002633
 P 22
    1         17.000000000000        -0.000907267398
    2         12.431973432000         0.002616326332
    3          5.158621765800        -0.007053197959
    4          1.280145481200         0.012369679208
    5         17.000000000000        -0.010383496370
    6         12.431973432000         0.029943338678
    7          5.158621765800        -0.080722459061
    8          1.280145481200         0.141568538030
    9         17.000000000000         0.004116947806
   10         12.431973432000        -0.011872220885
   11          5.158621765800         0.032005611487
   12          1.280145481200        -0.056130445971
   13          0.628567909000         0.027743104371
   14          0.628567909000         0.317514355887
   15          0.628567909000        -0.125891124159
   16          0.293804235500        -0.021433610801
   17          0.293804235500        -0.245303446821
   18          0.293804235500         0.097260253302
   19          0.065000000000        -0.074793050049
   20          0.065000000000        -0.855991701337
   21          0.065000000000         0.339391764669
   22          0.431990000000         0.004681991338
 D 22
    1          7.406473731500         0.002638127299
    2          5.902626860300        -0.005357753346
    3          1.298475675000         0.016723156852
    4          0.571535085400         0.028904235705
    5          7.406473731500         0.016346473519
    6          5.902626860300        -0.033197932947
    7          1.298475675000         0.103620716379
    8          0.571535085400         0.179097621140
    9          7.406473731500        -0.009313349750
   10          5.902626860300         0.018914413569
   11          1.298475675000        -0.059037563786
   12          0.571535085400        -0.102040283077
   13          7.406473731500        -0.023320671569
   14          5.902626860300         0.047361780518
   15          1.298475675000        -0.147830337330
   16          0.571535085400        -0.255509348643
   17          7.406473731500        -0.022563022174
   18          5.902626860300         0.045823075929
   19          1.298475675000        -0.143027578315
   20          0.571535085400        -0.247208279663
   21          0.238455266100         0.025841085824
   22          0.238455266100         0.160117605108
 D 22
    1          7.406473731500         0.001405977180
    2          5.902626860300        -0.002855388723
    3          1.298475675000         0.008912525533
    4          0.571535085400         0.015404372571
    5          7.406473731500         0.008711773972
    6          5.902626860300        -0.017692677741
    7          1.298475675000         0.055224159440
    8          0.571535085400         0.095449210647
    9          7.406473731500        -0.004963504688
   10          5.902626860300         0.010080345197
   11          1.298475675000        -0.031463783975
   12          0.571535085400        -0.054381875159
   13          7.406473731500        -0.012428639079
   14          5.902626860300         0.025241231774
   15          1.298475675000        -0.078785463025
   16          0.571535085400        -0.136172471115
   17          7.406473731500        -0.012024853500
   18          5.902626860300         0.024421186608
   19          1.298475675000        -0.076225855845
   20          0.571535085400        -0.131748456564
   21          0.238455266100         0.035012304780
   22          0.238455266100         0.216944691425
 P 22
    1         17.000000000000        -0.021084121328
    2         12.431973432000         0.060801194813
    3          5.158621765800        -0.163910311138
    4          1.280145481200         0.287460805653
    5         17.000000000000        -0.002933482723
    6         12.431973432000         0.008459411315
    7          5.158621765800        -0.022805221919
    8          1.280145481200         0.039995088902
    9         17.000000000000        -0.012045025939
   10         12.431973432000         0.034734763532
   11          5.158621765800        -0.093639375267
   12          1.280145481200         0.164221823924
   13          0.628567909000         1.030654640444
   14          0.628567909000         0.143397371611
   15          0.628567909000         0.588796738760
   16          0.293804235500        -1.759313705904
   17          0.293804235500        -0.244777398138
   18          0.293804235500        -1.005068169145
   19          0.065000000000         0.713306799229
   20          0.065000000000         0.099244030103
   21          0.065000000000         0.407500922851
   22          0.431990000000         0.009274367670
 F 22
    1         17.000000000000         0.000006750935
    2         12.431973432000        -0.000026621307
    3          5.158621765800         0.000172953723
    4          1.280145481200        -0.001222296697
    5         17.000000000000         0.000000939273
    6         12.431973432000        -0.000003703884
    7          5.158621765800         0.000024063453
    8          1.280145481200        -0.000170060976
    9         17.000000000000         0.000003856703
   10         12.431973432000        -0.000015208333
   11          5.158621765800         0.000098805734
   12          1.280145481200        -0.000698278823
   13          0.628567909000        -0.003946317400
   14          0.628567909000        -0.000549060297
   15          0.628567909000        -0.002254468882
   16          0.293804235500         0.005706411408
   17          0.293804235500         0.000793946260
   18          0.293804235500         0.003259982826
   19          0.065000000000        -0.022599148850
   20          0.065000000000        -0.003144272017
   21          0.065000000000        -0.012910537264
   22          0.431990000000         0.367647275366
 D 22
    1         30.000000000000        -0.000037296834
    2         27.000000000000         0.000060005626
    3         13.078045684000        -0.000113289968
    4          4.810044971700         0.000633250224
    5          0.984978042600        -0.007405151270
    6          0.449104853400         0.009225278766
    7          0.114483529200         0.021039136469
    8          0.041720422000        -0.024495800192
    9          7.406473731500        -0.040173911844
   10          5.902626860300         0.081588902348
   11          1.298475675000        -0.254663461227
   12          0.571535085400        -0.440159281758
   13          7.406473731500        -0.016111903315
   14          5.902626860300         0.032721546044
   15          1.298475675000        -0.102133769820
   16          0.571535085400        -0.176527588806
   17          7.406473731500        -0.056702932297
   18          5.902626860300         0.115157568523
   19          1.298475675000        -0.359441347321
   20          0.571535085400        -0.621256950287
   21          7.406473731500         0.005333958050
   22          5.902626860300        -0.010832696207
 P 22
    1         17.000000000000        -0.200673068126
    2         12.431973432000         0.578689627080
    3          5.158621765800        -1.560054816657
    4          1.280145481200         2.735975615848
    5         17.000000000000        -0.027920109596
    6         12.431973432000         0.080514430566
    7          5.158621765800        -0.217054046483
    8          1.280145481200         0.380662635799
    9         17.000000000000        -0.114641358446
   10         12.431973432000         0.330596255822
   11          5.158621765800        -0.891234708779
   12          1.280145481200         1.563019712630
   13          0.628567909000        -3.299581163610
   14          0.628567909000        -0.459078383410
   15          0.628567909000        -1.884998671870
   16          0.293804235500         1.577437633451
   17          0.293804235500         0.219472558118
   18          0.293804235500         0.901165237821
   19          0.065000000000        -0.270283433505
   20          0.065000000000        -0.037605161250
   21          0.065000000000        -0.154408662167
   22          0.431990000000        -0.000040383738
 end
-------------------------------------------
RADIAL EXPECTATION VALUES <R**-3> TO <R**3>
-------------------------------------------
   0 :     0.000000     1.049328     0.983282     1.106997     1.337001     1.763977
   1 :     0.854276     0.820063     0.863646     1.275401     1.793824     2.796338
   2 :     0.852494     0.818717     0.862804     1.277199     1.799952     2.816472
   3 :     0.850124     0.816930     0.861688     1.279555     1.807924     2.835997
   4 :     0.368589     0.445916     0.620725     1.872879     4.088771    51.887174
   5 :     0.346967     0.428504     0.605706     1.939679     4.433587    55.009156
   6 :     0.000000     0.182333     0.367438     3.014463    10.603390    41.627661
   7 :     0.000000     0.088391     0.238334     5.289375    31.524983   201.702111
   8 :     0.000000     0.572562     0.642649     2.290329     7.770044    36.680014
   9 :     0.000000     5.225380     2.030851     0.598852     0.584094     1.445690
  10 :     0.000000    47.186748     5.524993     0.241591     0.098511     0.153608
  11 :     0.074200     0.118816     0.297599     3.975839    17.719336    86.571829
  12 :     0.072825     0.117202     0.295655     3.996200    17.876959    87.555457
  13 :     0.070069     0.114149     0.292163     4.031178    18.146233    89.243498
  14 :     0.305888     0.384003     0.567475     2.125450     5.469752    84.536406
  15 :     0.298993     0.376943     0.561054     2.160419     5.675294    89.713861
  16 :     0.295314     0.373149     0.557573     2.179784     5.790335    92.639339
  17 :     0.057671     0.097598     0.263737     4.480149    21.791875   558.356366
  18 :     0.054831     0.094643     0.261101     4.491204    21.838588   559.031985
  19 :     0.088468     0.130168     0.294235     4.310716    20.812055   534.740995
  20 :     0.092367     0.134450     0.298377     4.287163    20.678091   531.588088
  21 :     0.094517     0.136823     0.300687     4.273761    20.600773   529.736506
  22 :     0.260037     0.287557     0.445468     3.122263    12.609329    61.137894
  23 :     0.263290     0.290540     0.448246     3.100192    12.445883    60.084743
  24 :     0.268357     0.295227     0.452689     3.063792    12.174434    58.282115
  25 :     0.138074     0.246841     0.479457     2.219855     5.208688    89.906068
  26 :     0.138109     0.246841     0.479436     2.220051     5.209902    89.834893
  27 :     0.138222     0.246957     0.479532     2.219711     5.208412    89.912337
  28 :     0.138109     0.246833     0.479421     2.220293     5.211988    89.842473
  29 :     0.138088     0.246809     0.479396     2.220483     5.213378    89.823265
  30 :     0.138080     0.246846     0.479461     2.219856     5.208810    89.917068
  31 :     0.138083     0.246851     0.479467     2.219807     5.208454    89.924804
  32 :     0.329634     0.365649     0.514608     2.713245     9.663573   210.051888
  33 :     0.351627     0.385301     0.529558     2.661075     9.414023   204.605708
  34 :     0.321977     0.358811     0.509316     2.733960     9.774328   212.790154
  35 :     0.354623     0.388080     0.531837     2.649659     9.342444   202.581160
  36 :     0.356152     0.389500     0.533008     2.643695     9.304723   201.507265
  37 :    10.158142     3.294990     1.451393     1.314709     3.132499    11.110522
  38 :    10.158102     3.294990     1.451405     1.314628     3.132018    11.107944
  39 :    10.158021     3.294990     1.451429     1.314465     3.131065    11.102932
Making the total density                ... o.k.
o.k.
Initializing the integrals              ... done
Making exponents                        ... done
Making rho(0)                           ... done (         0.000075187)
Integral calculation                    ... Two index integrals                     ... done
Solving the equation system             ... done
atomic density will be written to file WCl4_atom74.adf

-------
TIMINGS
-------

Total SCF time: 0 days 0 hours 0 min 0 sec 

Total time                  ....       0.258 sec
Sum of individual times     ....       0.050 sec  ( 19.5%)

Fock matrix formation       ....       0.036 sec  ( 14.1%)
Diagonalization             ....       0.011 sec  (  4.1%)
Density matrix formation    ....       0.000 sec  (  0.1%)
Population analysis         ....       0.000 sec  (  0.0%)
Initial guess               ....       0.000 sec  (  0.1%)
Orbital Transformation      ....       0.000 sec  (  0.0%)
Orbital Orthonormalization  ....       0.000 sec  (  0.0%)
DIIS solution               ....       0.003 sec  (  1.0%)

Maximum memory used throughout the entire SCF-calculation: 229.2 MB

-------------------------   --------------------
FINAL SINGLE POINT ENERGY       -65.906248446602
-------------------------   --------------------


                            ***************************************
                            *     ORCA property calculations      *
                            ***************************************

                                    ---------------------
                                    Active property flags
                                    ---------------------
   (+) Dipole Moment


------------------------------------------------------------------------------
                       ORCA ELECTRIC PROPERTIES CALCULATION
------------------------------------------------------------------------------

Dipole Moment Calculation                       ... on
Quadrupole Moment Calculation                   ... off
Polarizability Calculation                      ... off
GBWName                                         ... WCl4_atom74.gbw
Electron density                                ... WCl4_atom74.scfp
The origin for moment calculation is the CENTER OF MASS  = ( 0.000000,  0.000000  0.000000)

-------------
DIPOLE MOMENT
-------------
                                X             Y             Z
Electronic contribution:      0.00000      -0.00000       0.00000
Nuclear contribution   :      0.00000       0.00000       0.00000
                        -----------------------------------------
Total Dipole Moment    :      0.00000      -0.00000       0.00000
                        -----------------------------------------
Magnitude (a.u.)       :      0.00000
Magnitude (Debye)      :      0.00000



--------------------
Rotational spectrum 
--------------------
 
Rotational constants in cm-1:     0.000000     0.000000     0.000000 
Rotational constants in MHz :     0.000000     0.000000     0.000000 

 Dipole components along the rotational axes: 
x,y,z [a.u.] :     0.000000    -0.000000     0.000000 
x,y,z [Debye]:     0.000000    -0.000000     0.000000 

 

Timings for individual modules:

Sum of individual times         ...        0.398 sec (=   0.007 min)
GTO integral calculation        ...        0.136 sec (=   0.002 min)  34.1 %
SCF iterations                  ...        0.262 sec (=   0.004 min)  65.9 %
                             ****ORCA TERMINATED NORMALLY****
TOTAL RUN TIME: 0 days 0 hours 0 minutes 0 seconds 485 msec
