
                                 *****************
                                 * O   R   C   A *
                                 *****************

                                            #,                                       
                                            ###                                      
                                            ####                                     
                                            #####                                    
                                            ######                                   
                                           ########,                                 
                                     ,,################,,,,,                         
                               ,,#################################,,                 
                          ,,##########################################,,             
                       ,#########################################, ''#####,          
                    ,#############################################,,   '####,        
                  ,##################################################,,,,####,       
                ,###########''''           ''''###############################       
              ,#####''   ,,,,##########,,,,          '''####'''          '####       
            ,##' ,,,,###########################,,,                        '##       
           ' ,,###''''                  '''############,,,                           
         ,,##''                                '''############,,,,        ,,,,,,###''
      ,#''                                            '''#######################'''  
     '                                                          ''''####''''         
             ,#######,   #######,   ,#######,      ##                                
            ,#'     '#,  ##    ##  ,#'     '#,    #''#        ######   ,####,        
            ##       ##  ##   ,#'  ##            #'  '#       #        #'  '#        
            ##       ##  #######   ##           ,######,      #####,   #    #        
            '#,     ,#'  ##    ##  '#,     ,#' ,#      #,         ##   #,  ,#        
             '#######'   ##     ##  '#######'  #'      '#     #####' # '####'        



                  #######################################################
                  #                        -***-                        #
                  #          Department of theory and spectroscopy      #
                  #    Directorship and core code : Frank Neese         #
                  #        Max Planck Institute fuer Kohlenforschung    #
                  #                Kaiser Wilhelm Platz 1               #
                  #                 D-45470 Muelheim/Ruhr               #
                  #                      Germany                        #
                  #                                                     #
                  #                  All rights reserved                #
                  #                        -***-                        #
                  #######################################################


                         Program Version 5.0.4 -  RELEASE  -


 With contributions from (in alphabetic order):
   Daniel Aravena         : Magnetic Suceptibility
   Michael Atanasov       : Ab Initio Ligand Field Theory (pilot matlab implementation)
   Alexander A. Auer      : GIAO ZORA, VPT2 properties, NMR spectrum
   Ute Becker             : Parallelization
   Giovanni Bistoni       : ED, misc. LED, open-shell LED, HFLD
   Martin Brehm           : Molecular dynamics
   Dmytro Bykov           : SCF Hessian
   Vijay G. Chilkuri      : MRCI spin determinant printing, contributions to CSF-ICE
   Dipayan Datta          : RHF DLPNO-CCSD density
   Achintya Kumar Dutta   : EOM-CC, STEOM-CC
   Dmitry Ganyushin       : Spin-Orbit,Spin-Spin,Magnetic field MRCI
   Miquel Garcia          : C-PCM and meta-GGA Hessian, CC/C-PCM, Gaussian charge scheme
   Yang Guo               : DLPNO-NEVPT2, F12-NEVPT2, CIM, IAO-localization
   Andreas Hansen         : Spin unrestricted coupled pair/coupled cluster methods
   Benjamin Helmich-Paris : MC-RPA, TRAH-SCF, COSX integrals
   Lee Huntington         : MR-EOM, pCC
   Robert Izsak           : Overlap fitted RIJCOSX, COSX-SCS-MP3, EOM
   Marcus Kettner         : VPT2
   Christian Kollmar      : KDIIS, OOCD, Brueckner-CCSD(T), CCSD density, CASPT2, CASPT2-K
   Simone Kossmann        : Meta GGA functionals, TD-DFT gradient, OOMP2, MP2 Hessian
   Martin Krupicka        : Initial AUTO-CI
   Lucas Lang             : DCDCAS
   Marvin Lechner         : AUTO-CI (C++ implementation), FIC-MRCC
   Dagmar Lenk            : GEPOL surface, SMD
   Dimitrios Liakos       : Extrapolation schemes; Compound Job, initial MDCI parallelization
   Dimitrios Manganas     : Further ROCIS development; embedding schemes
   Dimitrios Pantazis     : SARC Basis sets
   Anastasios Papadopoulos: AUTO-CI, single reference methods and gradients
   Taras Petrenko         : DFT Hessian,TD-DFT gradient, ASA, ECA, R-Raman, ABS, FL, XAS/XES, NRVS
   Peter Pinski           : DLPNO-MP2, DLPNO-MP2 Gradient
   Christoph Reimann      : Effective Core Potentials
   Marius Retegan         : Local ZFS, SOC
   Christoph Riplinger    : Optimizer, TS searches, QM/MM, DLPNO-CCSD(T), (RO)-DLPNO pert. Triples
   Tobias Risthaus        : Range-separated hybrids, TD-DFT gradient, RPA, STAB
   Michael Roemelt        : Original ROCIS implementation
   Masaaki Saitow         : Open-shell DLPNO-CCSD energy and density
   Barbara Sandhoefer     : DKH picture change effects
   Avijit Sen             : IP-ROCIS
   Kantharuban Sivalingam : CASSCF convergence, NEVPT2, FIC-MRCI
   Bernardo de Souza      : ESD, SOC TD-DFT
   Georgi Stoychev        : AutoAux, RI-MP2 NMR, DLPNO-MP2 response
   Willem Van den Heuvel  : Paramagnetic NMR
   Boris Wezisla          : Elementary symmetry handling
   Frank Wennmohs         : Technical directorship


 We gratefully acknowledge several colleagues who have allowed us to
 interface, adapt or use parts of their codes:
   Stefan Grimme, W. Hujo, H. Kruse, P. Pracht,  : VdW corrections, initial TS optimization,
                  C. Bannwarth, S. Ehlert          DFT functionals, gCP, sTDA/sTD-DF
   Ed Valeev, F. Pavosevic, A. Kumar             : LibInt (2-el integral package), F12 methods
   Garnet Chan, S. Sharma, J. Yang, R. Olivares  : DMRG
   Ulf Ekstrom                                   : XCFun DFT Library
   Mihaly Kallay                                 : mrcc  (arbitrary order and MRCC methods)
   Jiri Pittner, Ondrej Demel                    : Mk-CCSD
   Frank Weinhold                                : gennbo (NPA and NBO analysis)
   Christopher J. Cramer and Donald G. Truhlar   : smd solvation model
   Lars Goerigk                                  : TD-DFT with DH, B97 family of functionals
   V. Asgeirsson, H. Jonsson                     : NEB implementation
   FAccTs GmbH                                   : IRC, NEB, NEB-TS, DLPNO-Multilevel, CI-OPT
                                                   MM, QMMM, 2- and 3-layer-ONIOM, Crystal-QMMM,
                                                   LR-CPCM, SF, NACMEs, symmetry and pop. for TD-DFT,
                                                   nearIR, NL-DFT gradient (VV10), updates on ESD,
                                                   ML-optimized integration grids
   S Lehtola, MJT Oliveira, MAL Marques          : LibXC Library
   Liviu Ungur et al                             : ANISO software


 Your calculation uses the libint2 library for the computation of 2-el integrals
 For citations please refer to: http://libint.valeyev.net

 Your ORCA version has been built with support for libXC version: 5.1.0
 For citations please refer to: https://tddft.org/programs/libxc/

 This ORCA versions uses:
   CBLAS   interface :  Fast vector & matrix operations
   LAPACKE interface :  Fast linear algebra routines
   SCALAPACK package :  Parallel linear algebra routines
   Shared memory     :  Shared parallel matrices
   BLAS/LAPACK       :  OpenBLAS 0.3.15  USE64BITINT DYNAMIC_ARCH NO_AFFINITY Haswell SINGLE_THREADED
        Core in use  :  Haswell
   Copyright (c) 2011-2014, The OpenBLAS Project


================================================================================

cite the ECPs for W  [Def2-ECP] as follows:
Ce-Yb(ecp-28): M. Dolg, H. Stoll, H.Preuss, J. Chem. Phys., 1989, 90, 1730-1734.
Y-Cd(ecp-28), Hf-Hg(ecp-46): D. Andrae,U. Haeussermann, M. Dolg, H. Stoll, H. Preuss, Theor. Chim. Acta, 1990, 77, 123-141.
In-Sb(ecp-28), Tl-Bi(ecp-46): B. Metz, H. Stoll, M. Dolg, J. Chem. Phys., 2000, 113, 2563-2569.
Te-Xe(ecp-28), Po-Rn(ecp-46): K. A. Peterson, D. Figgen, E. Goll, H. Stoll, M. Dolg, J. Chem. Phys., 2003, 119, 11113-11123.
Rb(ecp-28), Cs(ecp-46): T. Leininger, A. Nicklass, W. Kuechle, H. Stoll, M. Dolg, A. Bergner, Chem. Phys. Lett., 1996, 255, 274-280.
Sr(ecp-28), Ba(ecp-46): M. Kaupp, P. V. Schleyer, H. Stoll and H. Preuss, J. Chem. Phys., 1991, 94, 1360-1366.
La(ecp-46): M. Dolg, H. Stoll, A. Savin, H. Preuss, Theor. Chim. Acta, 1989, 75, 173-194.
Lu(ecp-28): X. Cao, M. Dolg, J. Chem. Phys., 2001, 115, 7348-7355.

ECP parameters for W  [Def2-ECP] have been obtained from:
TURBOMOLE (7.0.2)

----- Orbital basis set information -----
Your calculation utilizes the basis: def2-TZVP
   F. Weigend and R. Ahlrichs, Phys. Chem. Chem. Phys. 7, 3297 (2005).

----- AuxJ basis set information -----
Your calculation utilizes the auxiliary basis: def2/J
   F. Weigend, Phys. Chem. Chem. Phys. 8, 1057 (2006).

================================================================================
                                        WARNINGS
                       Please study these warnings very carefully!
================================================================================


WARNING: your system is open-shell and RHF/RKS was chosen
  ===> : WILL SWITCH to UHF/UKS


WARNING: Geometry Optimization
  ===> : Switching off AutoStart
         For restart on a previous wavefunction, please use MOREAD

INFO   : the flag for use of the SHARK integral package has been found!

================================================================================
                                       INPUT FILE
================================================================================
NAME = WCl4.inp
|  1> # avogadro generated ORCA file
|  2> # Geometry Optimization | PBE0/def2-TZVP
|  3> # [WCl4O]-
|  4> #
|  5> ! Opt PBE0 def2-TZVP FREQ
|  6> 
|  7> %maxcore 2730
|  8> 
|  9> %pal
| 10>    nprocs 6
| 11> end
| 12> 
| 13> * xyz -1 2
| 14>    W     -0.215400   -0.963431    0.118165
| 15>    Cl    -1.992836    0.604331   -0.091500
| 16>    Cl     1.783731    0.306536   -0.109374
| 17>    Cl    -2.173089   -2.311521    0.012006
| 18>    Cl     1.505721   -2.601610   -0.005400
| 19>    O     -0.156424   -0.315678    1.787151
| 20> *
| 21> 
| 22> 
| 23> 
| 24>                          ****END OF INPUT****
================================================================================

                       *****************************
                       * Geometry Optimization Run *
                       *****************************

Geometry optimization settings:
Update method            Update   .... BFGS
Choice of coordinates    CoordSys .... Z-matrix Internals
Initial Hessian          InHess   .... Almoef's Model

Convergence Tolerances:
Energy Change            TolE     ....  5.0000e-06 Eh
Max. Gradient            TolMAXG  ....  3.0000e-04 Eh/bohr
RMS Gradient             TolRMSG  ....  1.0000e-04 Eh/bohr
Max. Displacement        TolMAXD  ....  4.0000e-03 bohr
RMS Displacement         TolRMSD  ....  2.0000e-03 bohr
Strict Convergence                ....  False
------------------------------------------------------------------------------
                        ORCA OPTIMIZATION COORDINATE SETUP
------------------------------------------------------------------------------

The optimization will be done in new redundant internal coordinates
Making redundant internal coordinates   ...  (new redundants) done
Evaluating the initial hessian          ...  (Almloef) done
Evaluating the coordinates              ...  done
Calculating the B-matrix                .... done
Calculating the G-matrix                .... done
Diagonalizing the G-matrix              .... done
The first mode is                       ....    4
The number of degrees of freedom        ....   12

    -----------------------------------------------------------------
                    Redundant Internal Coordinates


    -----------------------------------------------------------------
         Definition                    Initial Value    Approx d2E/dq
    -----------------------------------------------------------------
      1. B(Cl  1,W   0)                  2.3793         0.086160   
      2. B(Cl  2,W   0)                  2.3793         0.086160   
      3. B(Cl  3,W   0)                  2.3793         0.086157   
      4. B(Cl  4,W   0)                  2.3793         0.086157   
      5. B(O   5,W   0)                  1.7912         0.298303   
      6. A(Cl  1,W   0,Cl  3)           75.8029         0.264160   
      7. A(Cl  2,W   0,Cl  3)          171.6796         0.264160   
      8. A(Cl  1,W   0,Cl  4)          171.6797         0.264161   
      9. A(Cl  2,W   0,Cl  4)           75.8030         0.264161   
     10. A(Cl  3,W   0,Cl  4)          101.6987         0.264159   
     11. A(Cl  1,W   0,O   5)           82.4393         0.308294   
     12. A(Cl  2,W   0,O   5)           82.4394         0.308294   
     13. A(Cl  3,W   0,O   5)          105.8757         0.308293   
     14. A(Cl  4,W   0,O   5)          105.8756         0.308293   
     15. A(Cl  1,W   0,Cl  2)          105.5184         0.264162   
     16. I(Cl  3,O   5,Cl  4,W   0)    -66.5689         0.002625   
    -----------------------------------------------------------------

Number of atoms                         .... 6
Number of degrees of freedom            .... 16

         *************************************************************
         *                GEOMETRY OPTIMIZATION CYCLE   1            *
         *************************************************************
---------------------------------
CARTESIAN COORDINATES (ANGSTROEM)
---------------------------------
  W     -0.215400   -0.963431    0.118165
  Cl    -1.992836    0.604331   -0.091500
  Cl     1.783731    0.306536   -0.109374
  Cl    -2.173089   -2.311521    0.012006
  Cl     1.505721   -2.601610   -0.005400
  O     -0.156424   -0.315678    1.787151

----------------------------
CARTESIAN COORDINATES (A.U.)
----------------------------
  NO LB      ZA    FRAG     MASS         X           Y           Z
   0 W    14.0000*   0   183.850   -0.407047   -1.820621    0.223299
   1 Cl   17.0000    0    35.453   -3.765914    1.142020   -0.172910
   2 Cl   17.0000    0    35.453    3.370763    0.579269   -0.206687
   3 Cl   17.0000    0    35.453   -4.106543   -4.368142    0.022688
   4 Cl   17.0000    0    35.453    2.845400   -4.916330   -0.010205
   5 O     8.0000    0    15.999   -0.295599   -0.596545    3.377226
* core charge reduced due to ECP

--------------------------------
INTERNAL COORDINATES (ANGSTROEM)
--------------------------------
 W      0   0   0     0.000000000000     0.00000000     0.00000000
 Cl     1   0   0     2.379309949327     0.00000000     0.00000000
 Cl     1   2   0     2.379309759735   105.51835108     0.00000000
 Cl     1   2   3     2.379319777185    75.80291067   188.49973946
 Cl     1   2   3     2.379318440627   171.67968211   261.97114490
 O      1   2   3     1.791249950672    82.43933179    79.94426274

---------------------------
INTERNAL COORDINATES (A.U.)
---------------------------
 W      0   0   0     0.000000000000     0.00000000     0.00000000
 Cl     1   0   0     4.496244191942     0.00000000     0.00000000
 Cl     1   2   0     4.496243833665   105.51835108     0.00000000
 Cl     1   2   3     4.496262763902    75.80291067   188.49973946
 Cl     1   2   3     4.496260238173   171.67968211   261.97114490
 O      1   2   3     3.384971844169    82.43933179    79.94426274

---------------------
BASIS SET INFORMATION
---------------------
There are 3 groups of distinct atoms

 Group   1 Type W   : 8s7p6d1f contracted to 6s4p3d1f pattern {311111/4111/411/1}
 Group   2 Type Cl  : 14s9p3d1f contracted to 5s5p2d1f pattern {73211/51111/21/1}
 Group   3 Type O   : 11s6p2d1f contracted to 5s3p2d1f pattern {62111/411/11/1}

Atom   0W    basis set group =>   1
Atom   1Cl   basis set group =>   2
Atom   2Cl   basis set group =>   2
Atom   3Cl   basis set group =>   2
Atom   4Cl   basis set group =>   2
Atom   5O    basis set group =>   3
---------------------------------
AUXILIARY/J BASIS SET INFORMATION
---------------------------------
There are 3 groups of distinct atoms

 Group   1 Type W   : 11s5p5d3f3g contracted to 8s5p5d2f3g pattern {41111111/11111/11111/21/111}
 Group   2 Type Cl  : 14s5p5d2f1g contracted to 8s4p3d1f1g pattern {71111111/2111/311/2/1}
 Group   3 Type O   : 12s5p4d2f1g contracted to 6s4p3d1f1g pattern {711111/2111/211/2/1}

Atom   0W    basis set group =>   1
Atom   1Cl   basis set group =>   2
Atom   2Cl   basis set group =>   2
Atom   3Cl   basis set group =>   2
Atom   4Cl   basis set group =>   2
Atom   5O    basis set group =>   3
-------------------------
ECP PARAMETER INFORMATION
-------------------------

 Group 1, Type W  ECP Def2-ECP (replacing 60 core electrons, lmax=3)

Atom   0W    ECP group =>   1



           ************************************************************
           *        Program running with 6 parallel MPI-processes     *
           *              working on a common directory               *
           ************************************************************
------------------------------------------------------------------------------
                           ORCA GTO INTEGRAL CALCULATION
                           -- RI-GTO INTEGRALS CHOSEN --
------------------------------------------------------------------------------
------------------------------------------------------------------------------
                   ___                                                        
                  /   \      - P O W E R E D   B Y -                         
                 /     \                                                     
                 |  |  |   _    _      __       _____    __    __             
                 |  |  |  | |  | |    /  \     |  _  \  |  |  /  |          
                  \  \/   | |  | |   /    \    | | | |  |  | /  /          
                 / \  \   | |__| |  /  /\  \   | |_| |  |  |/  /          
                |  |  |   |  __  | /  /__\  \  |    /   |      \           
                |  |  |   | |  | | |   __   |  |    \   |  |\   \          
                \     /   | |  | | |  |  |  |  | |\  \  |  | \   \       
                 \___/    |_|  |_| |__|  |__|  |_| \__\ |__|  \__/        
                                                                              
                      - O R C A' S   B I G   F R I E N D -                    
                                      &                                       
                       - I N T E G R A L  F E E D E R -                       
                                                                              
 v1 FN, 2020, v2 2021                                                         
------------------------------------------------------------------------------


Reading SHARK input file WCl4.SHARKINP.tmp ... ok
----------------------
SHARK INTEGRAL PACKAGE
----------------------

Number of atoms                             ...      6
Number of basis functions                   ...    219
Number of shells                            ...     77
Maximum angular momentum                    ...      3
Integral batch strategy                     ... SHARK/LIBINT Hybrid
RI-J (if used) integral strategy            ... SPLIT-RIJ (Revised 2003 algorithm where possible)
Printlevel                                  ...      1
Contraction scheme used                     ... SEGMENTED contraction
Coulomb Range Separation                    ... NOT USED
Exchange Range Separation                   ... NOT USED
Finite Nucleus Model                        ... NOT USED
Auxiliary Coulomb fitting basis             ... AVAILABLE
   # of basis functions in Aux-J            ...    342
   # of shells in Aux-J                     ...    106
   Maximum angular momentum in Aux-J        ...      4
Auxiliary J/K fitting basis                 ... NOT available
Auxiliary Correlation fitting basis         ... NOT available
Auxiliary 'external' fitting basis          ... NOT available
Integral threshold                          ...     2.500000e-11
Primitive cut-off                           ...     2.500000e-12
Primitive pair pre-selection threshold      ...     2.500000e-12

Calculating pre-screening integrals         ... done (  0.0 sec) Dimension = 77
Organizing shell pair data                  ... done (  0.0 sec)
Shell pair information
Total number of shell pairs                 ...      3003
Shell pairs after pre-screening             ...      2531
Total number of primitive shell pairs       ...     11506
Primitive shell pairs kept                  ...      6739
          la=0 lb=0:    366 shell pairs
          la=1 lb=0:    667 shell pairs
          la=1 lb=1:    326 shell pairs
          la=2 lb=0:    361 shell pairs
          la=2 lb=1:    323 shell pairs
          la=2 lb=2:     89 shell pairs
          la=3 lb=0:    158 shell pairs
          la=3 lb=1:    142 shell pairs
          la=3 lb=2:     78 shell pairs
          la=3 lb=3:     21 shell pairs

Calculating one electron integrals          ... done (  0.0 sec)
Calculating ECP integrals                   ... done (  0.2 sec)
Calculating RI/J V-Matrix + Cholesky decomp.... done (  0.0 sec)
Calculating Nuclear repulsion               ... done (  0.0 sec) ENN=    590.423591551499 Eh

SHARK setup successfully completed in   0.4 seconds

Maximum memory used throughout the entire GTOINT-calculation: 17.8 MB


           ************************************************************
           *        Program running with 6 parallel MPI-processes     *
           *              working on a common directory               *
           ************************************************************
-------------------------------------------------------------------------------
                                 ORCA SCF
-------------------------------------------------------------------------------

------------
SCF SETTINGS
------------
Hamiltonian:
 Density Functional     Method          .... DFT(GTOs)
 Exchange Functional    Exchange        .... PBE
   PBE kappa parameter   XKappa         ....  0.804000
   PBE mue parameter    XMuePBE         ....  0.219520
 Correlation Functional Correlation     .... PBE
   PBE beta parameter  CBetaPBE         ....  0.066725
 LDA part of GGA corr.  LDAOpt          .... PW91-LDA
 Gradients option       PostSCFGGA      .... off
 Hybrid DFT is turned on
   Fraction HF Exchange ScalHFX         ....  0.250000
   Scaling of DF-GGA-X  ScalDFX         ....  0.750000
   Scaling of DF-GGA-C  ScalDFC         ....  1.000000
   Scaling of DF-LDA-C  ScalLDAC        ....  1.000000
   Perturbative correction              ....  0.000000
   Density functional embedding theory  .... OFF
   NL short-range parameter             ....  6.900000
 RI-approximation to the Coulomb term is turned on
   Number of AuxJ basis functions       .... 342
   RIJ-COSX (HFX calculated with COS-X)).... on


General Settings:
 Integral files         IntName         .... WCl4
 Hartree-Fock type      HFTyp           .... UHF
 Total Charge           Charge          ....   -1
 Multiplicity           Mult            ....    2
 Number of Electrons    NEL             ....   91
 Basis Dimension        Dim             ....  219
 Nuclear Repulsion      ENuc            ....    590.4235915515 Eh

Convergence Acceleration:
 DIIS                   CNVDIIS         .... on
   Start iteration      DIISMaxIt       ....    12
   Startup error        DIISStart       ....  0.200000
   # of expansion vecs  DIISMaxEq       ....     5
   Bias factor          DIISBfac        ....   1.050
   Max. coefficient     DIISMaxC        ....  10.000
 Trust-Rad. Augm. Hess. CNVTRAH         .... auto
   Auto Start mean grad. ratio tolernc. ....  1.125000
   Auto Start start iteration           ....    20
   Auto Start num. interpolation iter.  ....    10
   Max. Number of Micro iterations      ....    16
   Max. Number of Macro iterations      .... Maxiter - #DIIS iter
   Number of Davidson start vectors     ....     2
   Converg. threshold I  (grad. norm)   ....   1.000e-05
   Converg. threshold II (energy diff.) ....   1.000e-08
   Grad. Scal. Fac. for Micro threshold ....   0.100
   Minimum threshold for Micro iter.    ....   0.010
   NR start threshold (gradient norm)   ....   0.001
   Initial trust radius                 ....   0.400
   Minimum AH scaling param. (alpha)    ....   1.000
   Maximum AH scaling param. (alpha)    .... 1000.000
   Orbital update algorithm             .... Taylor
   White noise on init. David. guess    .... on
   Maximum white noise                  ....   0.010
   Quad. conv. algorithm                .... NR
 SOSCF                  CNVSOSCF        .... off
 Level Shifting         CNVShift        .... on
   Level shift para.    LevelShift      ....    0.2500
   Turn off err/grad.   ShiftErr        ....    0.0010
 Zerner damping         CNVZerner       .... off
 Static damping         CNVDamp         .... on
   Fraction old density DampFac         ....    0.7000
   Max. Damping (<1)    DampMax         ....    0.9800
   Min. Damping (>=0)   DampMin         ....    0.0000
   Turn off err/grad.   DampErr         ....    0.1000
 Fernandez-Rico         CNVRico         .... off

SCF Procedure:
 Maximum # iterations   MaxIter         ....   125
 SCF integral mode      SCFMode         .... Direct
   Integral package                     .... SHARK and LIBINT hybrid scheme
 Reset frequency        DirectResetFreq ....    20
 Integral Threshold     Thresh          ....  2.500e-11 Eh
 Primitive CutOff       TCut            ....  2.500e-12 Eh

Convergence Tolerance:
 Convergence Check Mode ConvCheckMode   .... Total+1el-Energy
 Convergence forced     ConvForced      .... 0
 Energy Change          TolE            ....  1.000e-08 Eh
 1-El. energy change                    ....  1.000e-05 Eh
 DIIS Error             TolErr          ....  5.000e-07


Diagonalization of the overlap matrix:
Smallest eigenvalue                        ... 4.740e-03
Time for diagonalization                   ...    0.004 sec
Threshold for overlap eigenvalues          ... 1.000e-08
Number of eigenvalues below threshold      ... 0
Time for construction of square roots      ...    0.003 sec
Total time needed                          ...    0.008 sec

Time for model grid setup =    0.040 sec

------------------------------
INITIAL GUESS: MODEL POTENTIAL
------------------------------
Loading Hartree-Fock densities                     ... done
  calling /home/io/Chem/orca/orca WCl4_atom74.inp > WCl4_atom74.out in order to generate an atomic fitting density for atom 0 (W  with ECP) on-the-fly... 
    atom 0 (W ), assumed electronic state with S=5: 1s2 2s2 2p6 3s2 3p6 4s2 3d10 4p6 5s2 4d10 5p6 6s2 4f14 5d4           ... done
Calculating cut-offs                               ... done
Initializing the effective Hamiltonian             ... done
Setting up the integral package (SHARK)            ... done
Starting the Coulomb interaction                   ... done (   0.0 sec)
Reading the grid                                   ... done
Mapping shells                                     ... done
Starting the XC term evaluation                    ... done (   0.0 sec)
  promolecular density results
     # of electrons  =    150.002131639
     EX              =   -442.522494939
     EC              =     -7.386531906
     EX+EC           =   -449.909026845
Transforming the Hamiltonian                       ... done (   0.0 sec)
Diagonalizing the Hamiltonian                      ... done (   0.0 sec)
Back transforming the eigenvectors                 ... done (   0.0 sec)
Now organizing SCF variables                       ... done
                      ------------------
                      INITIAL GUESS DONE (   0.6 sec)
                      ------------------
-------------------
DFT GRID GENERATION
-------------------

General Integration Accuracy     IntAcc      ... 4.388
Radial Grid Type                 RadialGrid  ... OptM3 with GC (2021)
Angular Grid (max. ang.)         AngularGrid ... 4 (Lebedev-302)
Angular grid pruning method      GridPruning ... 4 (adaptive)
Weight generation scheme         WeightScheme... Becke
Basis function cutoff            BFCut       ... 1.0000e-11
Integration weight cutoff        WCut        ... 1.0000e-14
Angular grids for H and He will be reduced by one unit
Partially contracted basis set               ... off
Rotationally invariant grid construction     ... off

Total number of grid points                  ...    47096
Total number of batches                      ...      740
Average number of points per batch           ...       63
Average number of grid points per atom       ...     7849
Time for grid setup =    0.251 sec

--------------------
COSX GRID GENERATION
--------------------

GRIDX 1
-------
General Integration Accuracy     IntAcc      ... 3.816
Radial Grid Type                 RadialGrid  ... OptM3 with GC (2021)
Angular Grid (max. ang.)         AngularGrid ... 1 (Lebedev-50)
Angular grid pruning method      GridPruning ... 4 (adaptive)
Weight generation scheme         WeightScheme... Becke
Basis function cutoff            BFCut       ... 1.0000e-11
Integration weight cutoff        WCut        ... 1.0000e-14
Angular grids for H and He will be reduced by one unit
Partially contracted basis set               ... on
Rotationally invariant grid construction     ... off

Total number of grid points                  ...     5366
Total number of batches                      ...       87
Average number of points per batch           ...       61
Average number of grid points per atom       ...      894
UseSFitting                                  ... on

GRIDX 2
-------
General Integration Accuracy     IntAcc      ... 4.020
Radial Grid Type                 RadialGrid  ... OptM3 with GC (2021)
Angular Grid (max. ang.)         AngularGrid ... 2 (Lebedev-110)
Angular grid pruning method      GridPruning ... 4 (adaptive)
Weight generation scheme         WeightScheme... Becke
Basis function cutoff            BFCut       ... 1.0000e-11
Integration weight cutoff        WCut        ... 1.0000e-14
Angular grids for H and He will be reduced by one unit
Partially contracted basis set               ... on
Rotationally invariant grid construction     ... off

Total number of grid points                  ...    13655
Total number of batches                      ...      216
Average number of points per batch           ...       63
Average number of grid points per atom       ...     2276
UseSFitting                                  ... on

GRIDX 3
-------
General Integration Accuracy     IntAcc      ... 4.338
Radial Grid Type                 RadialGrid  ... OptM3 with GC (2021)
Angular Grid (max. ang.)         AngularGrid ... 3 (Lebedev-194)
Angular grid pruning method      GridPruning ... 4 (adaptive)
Weight generation scheme         WeightScheme... Becke
Basis function cutoff            BFCut       ... 1.0000e-11
Integration weight cutoff        WCut        ... 1.0000e-14
Angular grids for H and He will be reduced by one unit
Partially contracted basis set               ... on
Rotationally invariant grid construction     ... off

Total number of grid points                  ...    31318
Total number of batches                      ...      493
Average number of points per batch           ...       63
Average number of grid points per atom       ...     5220
UseSFitting                                  ... on

Time for X-Grid setup             =    0.193 sec

--------------
SCF ITERATIONS
--------------
ITER       Energy         Delta-E        Max-DP      RMS-DP      [F,P]     Damp
               ***  Starting incremental Fock matrix formation  ***
  0  -1979.0834089535   0.000000000000 1.45384447  0.01514178  0.4928575 0.7000
  1  -1980.6458371194  -1.562428165910 1.13625977  0.00611901  0.1488842 0.7000
                               ***Turning on DIIS***
  2  -1981.2480128741  -0.602175754703 1.02319776  0.01054272  0.0759015 0.0000
  3  -1982.3006065714  -1.052593697228 0.50245650  0.00206280  0.1676909 0.7000
  4  -1982.4560301610  -0.155423589626 0.52122169  0.00211880  0.1393978 0.7000
  5  -1982.5866847447  -0.130654583759 0.42431749  0.00172522  0.1047093 0.7000
  6  -1982.6642148852  -0.077530140504 1.08135957  0.00443641  0.0800703 0.0000
  7  -1982.8052266290  -0.141011743769 0.05323820  0.00042281  0.0250042 0.0000
  8  -1982.8134091381  -0.008182509101 0.02142796  0.00022175  0.0127528 0.0000
  9  -1982.8160132802  -0.002604142132 0.01230541  0.00013753  0.0055834 0.0000
 10  -1982.8171102220  -0.001096941731 0.00841153  0.00009233  0.0043047 0.0000
 11  -1982.8177585019  -0.000648279964 0.00832463  0.00007987  0.0032788 0.0000
 12  -1982.8182533142  -0.000494812233 0.00974826  0.00008822  0.0028762 0.0000
 13  -1982.8187236869  -0.000470372747 0.00761387  0.00006742  0.0026090 0.0000
 14  -1982.8190387355  -0.000315048615 0.00843404  0.00007250  0.0021665 0.0000
 15  -1982.8193172833  -0.000278547802 0.00563430  0.00005068  0.0018786 0.0000
 16  -1982.8194834155  -0.000166132152 0.00677634  0.00005761  0.0016405 0.0000
 17  -1982.8196295457  -0.000146130188 0.00483937  0.00004357  0.0013285 0.0000
 18  -1982.8197225073  -0.000092961609 0.00409977  0.00003677  0.0010998 0.0000
 19  -1982.8197821231  -0.000059615807 0.01053628  0.00009729  0.0008635 0.0000
               *** Restarting incremental Fock matrix formation ***
                                   *** Resetting DIIS ***
 20  -1982.8198144452  -0.000032322114 0.00205924  0.00002247  0.0008530 0.0000

 WARNING: the maximum gradient error descreased on average only by a factor   1.1
          during the last 20 iterations

                      *** Initiating the TRAH-SCF procedure ***


TRAH GRIDX
----------

General Integration Accuracy     IntAcc      ... 3.067
Radial Grid Type                 RadialGrid  ... OptM3 with GC (2021)
Angular Grid (max. ang.)         AngularGrid ... 1 (Lebedev-50)
Angular grid pruning method      GridPruning ... 4 (adaptive)
Weight generation scheme         WeightScheme... Becke
Basis function cutoff            BFCut       ... 1.0000e-11
Integration weight cutoff        WCut        ... 1.0000e-14
Angular grids for H and He will be reduced by one unit
Partially contracted basis set               ... on
Rotationally invariant grid construction     ... off

Total number of grid points                  ...     3476
Total number of batches                      ...       58
Average number of points per batch           ...       59
Average number of grid points per atom       ...      579


TRAH GRID
---------

General Integration Accuracy     IntAcc      ... 3.467
Radial Grid Type                 RadialGrid  ... OptM3 with GC (2021)
Angular Grid (max. ang.)         AngularGrid ... 1 (Lebedev-50)
Angular grid pruning method      GridPruning ... 4 (adaptive)
Weight generation scheme         WeightScheme... Becke
Basis function cutoff            BFCut       ... 1.0000e-11
Integration weight cutoff        WCut        ... 1.0000e-14
Angular grids for H and He will be reduced by one unit
Partially contracted basis set               ... off
Rotationally invariant grid construction     ... off

Total number of grid points                  ...    10316
Total number of batches                      ...      162
Average number of points per batch           ...       63
Average number of grid points per atom       ...     1719

 --------------------------------------------------------------------------------------------
   Iter.        energy            ||Error||_2        Shift      TRadius  Mac/Mic        Rej.
 --------------------------------------------------------------------------------------------
    0      -1982.819767530072     1.191849e-02                     0.400 (TRAH MAcro)   No
    0     dE    -4.147624e-05     1.371547e-02    -4.1476e-05      0.003 (TRAH MIcro)
    0     dE    -5.721207e-05     1.397453e-03    -5.7210e-05      0.006 (TRAH MIcro)
    0     dE    -5.954900e-05     1.753225e-03    -5.9544e-05      0.009 (TRAH MIcro)
    0     dE    -6.062266e-05     8.693149e-04    -6.0615e-05      0.011 (TRAH MIcro)
    1      -1982.819828136184     8.680828e-04                           (NR   MAcro)
    1     dE    -1.562215e-07     3.871463e-04                           (NR   MIcro)
    1     dE    -1.941023e-07     1.329574e-04                           (NR   MIcro)
    1     dE    -2.077139e-07     1.449227e-04                           (NR   MIcro)
    1     dE    -2.195160e-07     1.539909e-04                           (NR   MIcro)
    1     dE    -2.248742e-07     4.455819e-05                           (NR   MIcro)
    1     dE    -2.261363e-07     3.143353e-05                           (NR   MIcro)
    1     dE    -2.263773e-07     1.038902e-05                           (NR   MIcro)
    1     dE    -2.264180e-07     4.238200e-06                           (NR   MIcro)
    2      -1982.819828368972     4.575487e-06                           (NR   MAcro)
    2     dE    -7.134710e-12     1.581773e-06                           (NR   MIcro)
    2     dE    -8.860338e-12     1.117063e-06                           (NR   MIcro)
    2     dE    -9.568063e-12     8.144302e-07                           (NR   MIcro)
    3      -1982.819828369010     8.133005e-07                           (NR   MAcro)

               *****************************************************
               *                     SUCCESS                       *
               *           SCF CONVERGED AFTER  40 CYCLES          *
               *****************************************************

Old exchange energy                            =    -31.360047108 Eh
New exchange energy                            =    -31.360063459 Eh
Exchange energy change after final integration =     -0.000016351 Eh
Total energy after final integration           =  -1982.819844720 Eh
Final COS-X integration done in                =     1.247 sec

----------------
TOTAL SCF ENERGY
----------------

Total Energy       :        -1982.81984472 Eh          -53955.27101 eV

Components:
Nuclear Repulsion  :          590.42359155 Eh           16066.24272 eV
Electronic Energy  :        -2573.24343627 Eh          -70021.51373 eV
One Electron Energy:        -3953.54806610 Eh         -107581.51222 eV
Two Electron Energy:         1380.30462983 Eh           37559.99849 eV
Max COSX asymmetry :            0.00000122 Eh               0.00003 eV

Virial components:
Potential Energy   :        -3918.75540357 Eh         -106634.75574 eV
Kinetic Energy     :         1935.93555885 Eh           52679.48473 eV
Virial Ratio       :            2.02421790


DFT components:
N(Alpha)           :       46.000006365852 electrons
N(Beta)            :       45.000005833670 electrons
N(Total)           :       91.000012199522 electrons
E(X)               :      -93.843542768685 Eh       
E(C)               :       -3.529552674346 Eh       
E(XC)              :      -97.373095443032 Eh       
DFET-embed. en.    :        0.000000000000 Eh       

---------------
SCF CONVERGENCE
---------------

  Last Energy change         ...   -3.8654e-11  Tolerance :   1.0000e-08
  Last Orbital Gradient      ...    8.1330e-07  Tolerance :   1.0000e-05
  Last Orbital Rotation      ...    5.5697e-06

             **** THE GBW FILE WAS UPDATED (WCl4.gbw) ****
             **** DENSITY WCl4.scfp WAS UPDATED ****
             **** ENERGY FILE WAS UPDATED (WCl4.en.tmp) ****
----------------------
UHF SPIN CONTAMINATION
----------------------

Warning: in a DFT calculation there is little theoretical justification to 
         calculate <S**2> as in Hartree-Fock theory. We will do it anyways
         but you should keep in mind that the values have only limited relevance

Expectation value of <S**2>     :     0.764828
Ideal value S*(S+1) for S=0.5   :     0.750000
Deviation                       :     0.014828

             **** THE GBW FILE WAS UPDATED (WCl4.gbw) ****
             **** DENSITY WCl4.scfp WAS UPDATED ****
----------------
ORBITAL ENERGIES
----------------
                 SPIN UP ORBITALS
  NO   OCC          E(Eh)            E(eV) 
   0   1.0000    -101.538823     -2763.0118 
   1   1.0000    -101.538814     -2763.0116 
   2   1.0000    -101.521364     -2762.5367 
   3   1.0000    -101.521352     -2762.5364 
   4   1.0000     -19.099045      -519.7114 
   5   1.0000      -9.365653      -254.8524 
   6   1.0000      -9.365642      -254.8521 
   7   1.0000      -9.348533      -254.3865 
   8   1.0000      -9.348526      -254.3863 
   9   1.0000      -7.096079      -193.0941 
  10   1.0000      -7.096061      -193.0936 
  11   1.0000      -7.093781      -193.0316 
  12   1.0000      -7.093771      -193.0313 
  13   1.0000      -7.092789      -193.0046 
  14   1.0000      -7.092778      -193.0043 
  15   1.0000      -7.079377      -192.6396 
  16   1.0000      -7.079369      -192.6394 
  17   1.0000      -7.076337      -192.5569 
  18   1.0000      -7.076327      -192.5566 
  19   1.0000      -7.075581      -192.5364 
  20   1.0000      -7.075563      -192.5359 
  21   1.0000      -2.959164       -80.5229 
  22   1.0000      -1.603814       -43.6420 
  23   1.0000      -1.592356       -43.3302 
  24   1.0000      -1.591534       -43.3078 
  25   1.0000      -0.802444       -21.8356 
  26   1.0000      -0.686158       -18.6713 
  27   1.0000      -0.672156       -18.2903 
  28   1.0000      -0.655207       -17.8291 
  29   1.0000      -0.649557       -17.6753 
  30   1.0000      -0.293086        -7.9753 
  31   1.0000      -0.278530        -7.5792 
  32   1.0000      -0.271044        -7.3755 
  33   1.0000      -0.261854        -7.1254 
  34   1.0000      -0.253828        -6.9070 
  35   1.0000      -0.240706        -6.5499 
  36   1.0000      -0.232567        -6.3285 
  37   1.0000      -0.208363        -5.6698 
  38   1.0000      -0.203107        -5.5268 
  39   1.0000      -0.193133        -5.2554 
  40   1.0000      -0.180113        -4.9011 
  41   1.0000      -0.157367        -4.2822 
  42   1.0000      -0.150512        -4.0956 
  43   1.0000      -0.145328        -3.9546 
  44   1.0000      -0.139322        -3.7912 
  45   1.0000      -0.091189        -2.4814 
  46   0.0000       0.032232         0.8771 
  47   0.0000       0.038727         1.0538 
  48   0.0000       0.083963         2.2847 
  49   0.0000       0.124472         3.3870 
  50   0.0000       0.174216         4.7406 
  51   0.0000       0.222780         6.0622 
  52   0.0000       0.251035         6.8310 
  53   0.0000       0.270859         7.3704 
  54   0.0000       0.289947         7.8899 
  55   0.0000       0.356970         9.7137 
  56   0.0000       0.375652        10.2220 
  57   0.0000       0.377571        10.2742 
  58   0.0000       0.391294        10.6476 
  59   0.0000       0.419100        11.4043 
  60   0.0000       0.442166        12.0319 
  61   0.0000       0.453837        12.3495 
  62   0.0000       0.463713        12.6183 
  63   0.0000       0.474626        12.9152 
  64   0.0000       0.481489        13.1020 
  65   0.0000       0.499311        13.5869 
  66   0.0000       0.503161        13.6917 
  67   0.0000       0.505969        13.7681 
  68   0.0000       0.512622        13.9492 
  69   0.0000       0.520772        14.1709 
  70   0.0000       0.521469        14.1899 
  71   0.0000       0.527594        14.3566 
  72   0.0000       0.536487        14.5986 
  73   0.0000       0.540222        14.7002 
  74   0.0000       0.559463        15.2238 
  75   0.0000       0.574378        15.6296 
  76   0.0000       0.585542        15.9334 
  77   0.0000       0.586801        15.9677 
  78   0.0000       0.588273        16.0077 
  79   0.0000       0.612826        16.6758 
  80   0.0000       0.623588        16.9687 
  81   0.0000       0.632456        17.2100 
  82   0.0000       0.646959        17.6046 
  83   0.0000       0.649687        17.6789 
  84   0.0000       0.677203        18.4276 
  85   0.0000       0.704329        19.1658 
  86   0.0000       0.756084        20.5741 
  87   0.0000       0.762963        20.7613 
  88   0.0000       0.769077        20.9276 
  89   0.0000       0.793944        21.6043 
  90   0.0000       0.801514        21.8103 
  91   0.0000       0.810222        22.0473 
  92   0.0000       0.853549        23.2263 
  93   0.0000       0.872625        23.7453 
  94   0.0000       0.885882        24.1061 
  95   0.0000       0.900287        24.4981 
  96   0.0000       0.914941        24.8968 
  97   0.0000       0.988071        26.8868 
  98   0.0000       1.074011        29.2253 
  99   0.0000       1.089280        29.6408 
 100   0.0000       1.109002        30.1775 
 101   0.0000       1.143404        31.1136 
 102   0.0000       1.151082        31.3225 
 103   0.0000       1.175157        31.9777 
 104   0.0000       1.180454        32.1218 
 105   0.0000       1.188187        32.3322 
 106   0.0000       1.199351        32.6360 
 107   0.0000       1.237986        33.6873 
 108   0.0000       1.243104        33.8266 
 109   0.0000       1.283242        34.9188 
 110   0.0000       1.322986        36.0003 
 111   0.0000       1.386833        37.7377 
 112   0.0000       1.442084        39.2411 
 113   0.0000       1.620443        44.0945 
 114   0.0000       1.627182        44.2779 
 115   0.0000       1.693753        46.0893 
 116   0.0000       1.738496        47.3069 
 117   0.0000       1.857518        50.5456 
 118   0.0000       1.878439        51.1149 
 119   0.0000       1.879621        51.1471 
 120   0.0000       1.893464        51.5238 
 121   0.0000       1.897370        51.6301 
 122   0.0000       1.945962        52.9523 
 123   0.0000       1.949936        53.0605 
 124   0.0000       1.957292        53.2606 
 125   0.0000       1.960828        53.3568 
 126   0.0000       1.981449        53.9180 
 127   0.0000       1.986191        54.0470 
 128   0.0000       1.992792        54.2266 
 129   0.0000       2.033094        55.3233 
 130   0.0000       2.042184        55.5707 
 131   0.0000       2.043912        55.6177 
 132   0.0000       2.066756        56.2393 
 133   0.0000       2.073204        56.4148 
 134   0.0000       2.077606        56.5345 
 135   0.0000       2.092926        56.9514 
 136   0.0000       2.103099        57.2282 
 137   0.0000       2.117247        57.6132 
 138   0.0000       2.127910        57.9034 
 139   0.0000       2.129674        57.9514 
 140   0.0000       2.226885        60.5966 
 141   0.0000       2.238894        60.9234 
 142   0.0000       2.241059        60.9823 
 143   0.0000       2.243460        61.0476 
 144   0.0000       2.244705        61.0815 
 145   0.0000       2.246923        61.1419 
 146   0.0000       2.251162        61.2572 
 147   0.0000       2.255714        61.3811 
 148   0.0000       2.259281        61.4782 
 149   0.0000       2.261969        61.5513 
 150   0.0000       2.267120        61.6915 
 151   0.0000       2.267432        61.7000 
 152   0.0000       2.273378        61.8617 
 153   0.0000       2.280963        62.0681 
 154   0.0000       2.283863        62.1471 
 155   0.0000       2.302023        62.6412 
 156   0.0000       2.322015        63.1853 
 157   0.0000       2.374420        64.6113 
 158   0.0000       2.388980        65.0075 
 159   0.0000       2.394526        65.1584 
 160   0.0000       2.404682        65.4347 
 161   0.0000       2.413150        65.6652 
 162   0.0000       2.421290        65.8866 
 163   0.0000       2.427719        66.0616 
 164   0.0000       2.433830        66.2279 
 165   0.0000       2.436252        66.2938 
 166   0.0000       2.441311        66.4315 
 167   0.0000       2.449130        66.6442 
 168   0.0000       2.453450        66.7618 
 169   0.0000       2.465142        67.0799 
 170   0.0000       2.466837        67.1261 
 171   0.0000       2.473285        67.3015 
 172   0.0000       2.484547        67.6080 
 173   0.0000       2.488422        67.7134 
 174   0.0000       2.505741        68.1847 
 175   0.0000       2.521328        68.6088 
 176   0.0000       2.533556        68.9416 
 177   0.0000       2.887583        78.5751 
 178   0.0000       2.912490        79.2529 
 179   0.0000       2.994155        81.4751 
 180   0.0000       3.020341        82.1877 
 181   0.0000       3.051134        83.0256 
 182   0.0000       3.137442        85.3741 
 183   0.0000       3.226480        87.7970 
 184   0.0000       3.735513       101.6485 
 185   0.0000       5.277178       143.5993 
 186   0.0000       5.280124       143.6795 
 187   0.0000       5.282480       143.7436 
 188   0.0000       5.297171       144.1434 
 189   0.0000       5.343240       145.3970 
 190   0.0000       5.362685       145.9261 
 191   0.0000       5.371532       146.1668 
 192   0.0000       6.407990       174.3703 
 193   0.0000       6.436390       175.1431 
 194   0.0000       6.618620       180.1018 
 195   0.0000       6.660332       181.2369 
 196   0.0000       6.873574       187.0394 
 197   0.0000      10.916799       297.0612 
 198   0.0000      10.921308       297.1839 
 199   0.0000      10.925483       297.2975 
 200   0.0000      10.936257       297.5907 
 201   0.0000      10.938755       297.6586 
 202   0.0000      10.942673       297.7653 
 203   0.0000      10.951260       297.9989 
 204   0.0000      10.952811       298.0411 
 205   0.0000      11.066700       301.1402 
 206   0.0000      11.068977       301.2022 
 207   0.0000      11.137224       303.0593 
 208   0.0000      11.174133       304.0636 
 209   0.0000      24.866452       676.6506 
 210   0.0000      25.098119       682.9545 
 211   0.0000      25.152594       684.4369 
 212   0.0000      25.593600       696.4373 
 213   0.0000      40.414059      1099.7225 
 214   0.0000      42.600607      1159.2214 
 215   0.0000      43.669106      1188.2968 
 216   0.0000      43.897707      1194.5173 
 217   0.0000      70.368286      1914.8184 
 218   0.0000     583.478277     15877.2511 

                 SPIN DOWN ORBITALS
  NO   OCC          E(Eh)            E(eV) 
   0   1.0000    -101.538672     -2763.0077 
   1   1.0000    -101.538664     -2763.0075 
   2   1.0000    -101.521087     -2762.5292 
   3   1.0000    -101.521075     -2762.5289 
   4   1.0000     -19.102878      -519.8157 
   5   1.0000      -9.365510      -254.8485 
   6   1.0000      -9.365498      -254.8482 
   7   1.0000      -9.348277      -254.3795 
   8   1.0000      -9.348269      -254.3793 
   9   1.0000      -7.096301      -193.1002 
  10   1.0000      -7.096282      -193.0997 
  11   1.0000      -7.093674      -193.0287 
  12   1.0000      -7.093666      -193.0285 
  13   1.0000      -7.092002      -192.9832 
  14   1.0000      -7.091990      -192.9829 
  15   1.0000      -7.079633      -192.6466 
  16   1.0000      -7.079626      -192.6464 
  17   1.0000      -7.075687      -192.5392 
  18   1.0000      -7.075667      -192.5387 
  19   1.0000      -7.074764      -192.5141 
  20   1.0000      -7.074757      -192.5139 
  21   1.0000      -2.935635       -79.8827 
  22   1.0000      -1.589978       -43.2655 
  23   1.0000      -1.556182       -42.3459 
  24   1.0000      -1.546112       -42.0719 
  25   1.0000      -0.811911       -22.0932 
  26   1.0000      -0.684370       -18.6227 
  27   1.0000      -0.670929       -18.2569 
  28   1.0000      -0.653434       -17.7808 
  29   1.0000      -0.647928       -17.6310 
  30   1.0000      -0.285722        -7.7749 
  31   1.0000      -0.276584        -7.5262 
  32   1.0000      -0.272275        -7.4090 
  33   1.0000      -0.256928        -6.9914 
  34   1.0000      -0.251551        -6.8451 
  35   1.0000      -0.230547        -6.2735 
  36   1.0000      -0.226934        -6.1752 
  37   1.0000      -0.205783        -5.5996 
  38   1.0000      -0.201049        -5.4708 
  39   1.0000      -0.190814        -5.1923 
  40   1.0000      -0.179825        -4.8933 
  41   1.0000      -0.159140        -4.3304 
  42   1.0000      -0.152101        -4.1389 
  43   1.0000      -0.141551        -3.8518 
  44   1.0000      -0.134250        -3.6531 
  45   0.0000       0.042164         1.1473 
  46   0.0000       0.048302         1.3144 
  47   0.0000       0.050502         1.3742 
  48   0.0000       0.092055         2.5049 
  49   0.0000       0.133819         3.6414 
  50   0.0000       0.183460         4.9922 
  51   0.0000       0.231038         6.2869 
  52   0.0000       0.257702         7.0124 
  53   0.0000       0.271486         7.3875 
  54   0.0000       0.293522         7.9871 
  55   0.0000       0.360593         9.8122 
  56   0.0000       0.376388        10.2420 
  57   0.0000       0.384389        10.4598 
  58   0.0000       0.393518        10.7082 
  59   0.0000       0.428300        11.6546 
  60   0.0000       0.446266        12.1435 
  61   0.0000       0.459315        12.4986 
  62   0.0000       0.465300        12.6614 
  63   0.0000       0.477452        12.9921 
  64   0.0000       0.483462        13.1557 
  65   0.0000       0.504567        13.7300 
  66   0.0000       0.504840        13.7374 
  67   0.0000       0.506217        13.7749 
  68   0.0000       0.513313        13.9679 
  69   0.0000       0.521326        14.1860 
  70   0.0000       0.524285        14.2665 
  71   0.0000       0.529203        14.4003 
  72   0.0000       0.540172        14.6988 
  73   0.0000       0.543690        14.7946 
  74   0.0000       0.560433        15.2502 
  75   0.0000       0.575676        15.6649 
  76   0.0000       0.586230        15.9521 
  77   0.0000       0.588770        16.0212 
  78   0.0000       0.590701        16.0738 
  79   0.0000       0.616160        16.7666 
  80   0.0000       0.626127        17.0378 
  81   0.0000       0.634573        17.2676 
  82   0.0000       0.649340        17.6694 
  83   0.0000       0.652199        17.7472 
  84   0.0000       0.679623        18.4935 
  85   0.0000       0.706048        19.2126 
  86   0.0000       0.756248        20.5785 
  87   0.0000       0.765244        20.8233 
  88   0.0000       0.771839        21.0028 
  89   0.0000       0.795501        21.6467 
  90   0.0000       0.805913        21.9300 
  91   0.0000       0.814188        22.1552 
  92   0.0000       0.854459        23.2510 
  93   0.0000       0.875386        23.8205 
  94   0.0000       0.887574        24.1521 
  95   0.0000       0.902039        24.5457 
  96   0.0000       0.928638        25.2695 
  97   0.0000       0.990069        26.9412 
  98   0.0000       1.086373        29.5617 
  99   0.0000       1.115353        30.3503 
 100   0.0000       1.124273        30.5930 
 101   0.0000       1.153508        31.3886 
 102   0.0000       1.176493        32.0140 
 103   0.0000       1.190223        32.3876 
 104   0.0000       1.191780        32.4300 
 105   0.0000       1.218219        33.1494 
 106   0.0000       1.222084        33.2546 
 107   0.0000       1.245561        33.8934 
 108   0.0000       1.260173        34.2910 
 109   0.0000       1.285458        34.9791 
 110   0.0000       1.345628        36.6164 
 111   0.0000       1.395585        37.9758 
 112   0.0000       1.449766        39.4501 
 113   0.0000       1.628925        44.3253 
 114   0.0000       1.629685        44.3460 
 115   0.0000       1.691630        46.0316 
 116   0.0000       1.737412        47.2774 
 117   0.0000       1.864294        50.7300 
 118   0.0000       1.880543        51.1722 
 119   0.0000       1.880964        51.1836 
 120   0.0000       1.895953        51.5915 
 121   0.0000       1.898699        51.6662 
 122   0.0000       1.946602        52.9697 
 123   0.0000       1.951531        53.1039 
 124   0.0000       1.958070        53.2818 
 125   0.0000       1.961908        53.3862 
 126   0.0000       1.982549        53.9479 
 127   0.0000       1.986777        54.0629 
 128   0.0000       1.993343        54.2416 
 129   0.0000       2.032809        55.3155 
 130   0.0000       2.042214        55.5715 
 131   0.0000       2.045052        55.6487 
 132   0.0000       2.068018        56.2736 
 133   0.0000       2.072557        56.3971 
 134   0.0000       2.078286        56.5530 
 135   0.0000       2.093478        56.9664 
 136   0.0000       2.103748        57.2459 
 137   0.0000       2.117564        57.6219 
 138   0.0000       2.128100        57.9085 
 139   0.0000       2.130467        57.9730 
 140   0.0000       2.227033        60.6006 
 141   0.0000       2.239600        60.9426 
 142   0.0000       2.242332        61.0170 
 143   0.0000       2.244420        61.0738 
 144   0.0000       2.245841        61.1124 
 145   0.0000       2.248615        61.1879 
 146   0.0000       2.252466        61.2927 
 147   0.0000       2.257369        61.4261 
 148   0.0000       2.260495        61.5112 
 149   0.0000       2.263110        61.5824 
 150   0.0000       2.269316        61.7512 
 151   0.0000       2.269771        61.7636 
 152   0.0000       2.275633        61.9231 
 153   0.0000       2.282909        62.1211 
 154   0.0000       2.284914        62.1757 
 155   0.0000       2.303332        62.6769 
 156   0.0000       2.324488        63.2525 
 157   0.0000       2.376767        64.6751 
 158   0.0000       2.389348        65.0175 
 159   0.0000       2.396022        65.1991 
 160   0.0000       2.405701        65.4625 
 161   0.0000       2.415682        65.7340 
 162   0.0000       2.422289        65.9138 
 163   0.0000       2.429044        66.0977 
 164   0.0000       2.435928        66.2850 
 165   0.0000       2.437442        66.3262 
 166   0.0000       2.443057        66.4790 
 167   0.0000       2.452081        66.7245 
 168   0.0000       2.454381        66.7871 
 169   0.0000       2.468879        67.1816 
 170   0.0000       2.471182        67.2443 
 171   0.0000       2.475463        67.3608 
 172   0.0000       2.486519        67.6616 
 173   0.0000       2.489844        67.7521 
 174   0.0000       2.508898        68.2706 
 175   0.0000       2.521871        68.6236 
 176   0.0000       2.538355        69.0721 
 177   0.0000       2.884602        78.4940 
 178   0.0000       2.908897        79.1551 
 179   0.0000       2.997053        81.5540 
 180   0.0000       3.026369        82.3517 
 181   0.0000       3.054730        83.1234 
 182   0.0000       3.133290        85.2612 
 183   0.0000       3.229071        87.8675 
 184   0.0000       3.736947       101.6875 
 185   0.0000       5.269116       143.3799 
 186   0.0000       5.272169       143.4630 
 187   0.0000       5.276387       143.5778 
 188   0.0000       5.291044       143.9766 
 189   0.0000       5.338105       145.2572 
 190   0.0000       5.358058       145.8002 
 191   0.0000       5.366966       146.0426 
 192   0.0000       6.396401       174.0549 
 193   0.0000       6.424708       174.8252 
 194   0.0000       6.610470       179.8800 
 195   0.0000       6.653042       181.0385 
 196   0.0000       6.866830       186.8559 
 197   0.0000      10.917090       297.0691 
 198   0.0000      10.922563       297.2180 
 199   0.0000      10.925687       297.3031 
 200   0.0000      10.937238       297.6174 
 201   0.0000      10.939456       297.6777 
 202   0.0000      10.944111       297.8044 
 203   0.0000      10.951810       298.0139 
 204   0.0000      10.954272       298.0809 
 205   0.0000      11.066506       301.1349 
 206   0.0000      11.068833       301.1983 
 207   0.0000      11.137359       303.0630 
 208   0.0000      11.174042       304.0611 
 209   0.0000      24.866778       676.6594 
 210   0.0000      25.098563       682.9666 
 211   0.0000      25.152960       684.4468 
 212   0.0000      25.593965       696.4472 
 213   0.0000      40.430043      1100.1574 
 214   0.0000      42.608600      1159.4389 
 215   0.0000      43.665836      1188.2078 
 216   0.0000      43.908715      1194.8169 
 217   0.0000      70.373921      1914.9717 
 218   0.0000     583.485270     15877.4414 

                    ********************************
                    * MULLIKEN POPULATION ANALYSIS *
                    ********************************

--------------------------------------------
MULLIKEN ATOMIC CHARGES AND SPIN POPULATIONS
--------------------------------------------
   0 W :    1.131430    1.046587
   1 Cl:   -0.441367    0.031197
   2 Cl:   -0.441365    0.031192
   3 Cl:   -0.433311    0.017463
   4 Cl:   -0.433179    0.017463
   5 O :   -0.382209   -0.143901
Sum of atomic charges         :   -1.0000000
Sum of atomic spin populations:    1.0000000

-----------------------------------------------------
MULLIKEN REDUCED ORBITAL CHARGES AND SPIN POPULATIONS
-----------------------------------------------------
CHARGE
  0 W s       :     2.540031  s :     2.540031
      pz      :     2.137485  p :     6.442142
      px      :     2.140553
      py      :     2.164104
      dz2     :     0.674734  d :     3.768804
      dxz     :     0.631056
      dyz     :     0.783609
      dx2y2   :     0.981883
      dxy     :     0.697521
      f0      :     0.017588  f :     0.117593
      f+1     :     0.019402
      f-1     :     0.017393
      f+2     :     0.005347
      f-2     :     0.015157
      f+3     :     0.017216
      f-3     :     0.025490
  1 Cls       :     5.942675  s :     5.942675
      pz      :     3.902457  p :    11.461720
      px      :     3.759877
      py      :     3.799386
      dz2     :     0.004269  d :     0.034607
      dxz     :     0.005052
      dyz     :     0.003750
      dx2y2   :     0.011296
      dxy     :     0.010241
      f0      :     0.000164  f :     0.002364
      f+1     :     0.000250
      f-1     :     0.000224
      f+2     :     0.000082
      f-2     :     0.000307
      f+3     :     0.000661
      f-3     :     0.000676
  2 Cls       :     5.942677  s :     5.942677
      pz      :     3.902808  p :    11.461717
      px      :     3.714675
      py      :     3.844234
      dz2     :     0.004312  d :     0.034606
      dxz     :     0.006011
      dyz     :     0.002748
      dx2y2   :     0.011619
      dxy     :     0.009917
      f0      :     0.000163  f :     0.002365
      f+1     :     0.000306
      f-1     :     0.000171
      f+2     :     0.000133
      f-2     :     0.000255
      f+3     :     0.000609
      f-3     :     0.000728
  3 Cls       :     5.946346  s :     5.946346
      pz      :     3.865204  p :    11.451068
      px      :     3.727508
      py      :     3.858357
      dz2     :     0.003671  d :     0.033637
      dxz     :     0.004818
      dyz     :     0.002792
      dx2y2   :     0.012500
      dxy     :     0.009856
      f0      :     0.000157  f :     0.002259
      f+1     :     0.000212
      f-1     :     0.000164
      f+2     :     0.000105
      f-2     :     0.000263
      f+3     :     0.000619
      f-3     :     0.000739
  4 Cls       :     5.946366  s :     5.946366
      pz      :     3.865391  p :    11.450920
      px      :     3.767094
      py      :     3.818434
      dz2     :     0.003678  d :     0.033634
      dxz     :     0.003915
      dyz     :     0.003709
      dx2y2   :     0.011941
      dxy     :     0.010391
      f0      :     0.000157  f :     0.002260
      f+1     :     0.000172
      f-1     :     0.000205
      f+2     :     0.000061
      f-2     :     0.000309
      f+3     :     0.000663
      f-3     :     0.000692
  5 O s       :     3.907197  s :     3.907197
      pz      :     1.428415  p :     4.450672
      px      :     1.537747
      py      :     1.484511
      dz2     :     0.007641  d :     0.023206
      dxz     :     0.005758
      dyz     :     0.006689
      dx2y2   :     0.001444
      dxy     :     0.001675
      f0      :     0.000360  f :     0.001133
      f+1     :     0.000205
      f-1     :     0.000321
      f+2     :     0.000112
      f-2     :     0.000110
      f+3     :     0.000012
      f-3     :     0.000013

SPIN
  0 W s       :     0.063480  s :     0.063480
      pz      :     0.003284  p :     0.017299
      px      :     0.006551
      py      :     0.007464
      dz2     :     0.052682  d :     0.965636
      dxz     :     0.051163
      dyz     :     0.230124
      dx2y2   :     0.592820
      dxy     :     0.038847
      f0      :     0.000067  f :     0.000172
      f+1     :    -0.000004
      f-1     :     0.000160
      f+2     :    -0.000126
      f-2     :     0.000110
      f+3     :     0.000092
      f-3     :    -0.000128
  1 Cls       :    -0.000889  s :    -0.000889
      pz      :     0.010739  p :     0.027564
      px      :     0.000969
      py      :     0.015856
      dz2     :    -0.000069  d :     0.004300
      dxz     :     0.000333
      dyz     :     0.000370
      dx2y2   :     0.003159
      dxy     :     0.000507
      f0      :     0.000013  f :     0.000221
      f+1     :    -0.000002
      f-1     :     0.000005
      f+2     :     0.000002
      f-2     :     0.000014
      f+3     :     0.000189
      f-3     :     0.000000
  2 Cls       :    -0.000887  s :    -0.000887
      pz      :     0.010541  p :     0.027557
      px      :    -0.008096
      py      :     0.025112
      dz2     :    -0.000067  d :     0.004301
      dxz     :     0.000420
      dyz     :     0.000274
      dx2y2   :     0.002204
      dxy     :     0.001470
      f0      :     0.000013  f :     0.000221
      f+1     :    -0.000004
      f-1     :     0.000007
      f+2     :     0.000002
      f-2     :     0.000013
      f+3     :     0.000212
      f-3     :    -0.000022
  3 Cls       :    -0.001115  s :    -0.001115
      pz      :     0.002142  p :     0.013990
      px      :    -0.009715
      py      :     0.021562
      dz2     :    -0.000030  d :     0.004334
      dxz     :     0.000549
      dyz     :     0.000051
      dx2y2   :     0.002326
      dxy     :     0.001437
      f0      :     0.000013  f :     0.000254
      f+1     :    -0.000000
      f-1     :     0.000016
      f+2     :     0.000018
      f-2     :     0.000001
      f+3     :     0.000228
      f-3     :    -0.000021
  4 Cls       :    -0.001117  s :    -0.001117
      pz      :     0.002205  p :     0.013991
      px      :    -0.003310
      py      :     0.015096
      dz2     :    -0.000025  d :     0.004335
      dxz     :     0.000520
      dyz     :     0.000096
      dx2y2   :     0.003305
      dxy     :     0.000438
      f0      :     0.000012  f :     0.000254
      f+1     :    -0.000000
      f-1     :     0.000016
      f+2     :     0.000015
      f-2     :     0.000005
      f+3     :     0.000187
      f-3     :     0.000018
  5 O s       :    -0.002179  s :    -0.002179
      pz      :    -0.027411  p :    -0.142754
      px      :    -0.051414
      py      :    -0.063929
      dz2     :     0.000201  d :     0.000943
      dxz     :     0.000228
      dyz     :     0.000238
      dx2y2   :     0.000203
      dxy     :     0.000074
      f0      :     0.000022  f :     0.000089
      f+1     :     0.000014
      f-1     :     0.000023
      f+2     :     0.000016
      f-2     :     0.000008
      f+3     :     0.000000
      f-3     :     0.000004


                     *******************************
                     * LOEWDIN POPULATION ANALYSIS *
                     *******************************

-------------------------------------------
LOEWDIN ATOMIC CHARGES AND SPIN POPULATIONS
-------------------------------------------
   0 W :   -0.294221    0.965713
   1 Cl:   -0.116549    0.047238
   2 Cl:   -0.116571    0.047233
   3 Cl:   -0.109947    0.032272
   4 Cl:   -0.109893    0.032275
   5 O :   -0.252819   -0.124731

----------------------------------------------------
LOEWDIN REDUCED ORBITAL CHARGES AND SPIN POPULATIONS
----------------------------------------------------
CHARGE
  0 W s       :     2.447609  s :     2.447609
      pz      :     2.197356  p :     6.870115
      px      :     2.355003
      py      :     2.317756
      dz2     :     0.871565  d :     4.746127
      dxz     :     0.735952
      dyz     :     0.894505
      dx2y2   :     1.131345
      dxy     :     1.112761
      f0      :     0.032752  f :     0.230370
      f+1     :     0.037166
      f-1     :     0.040001
      f+2     :     0.009230
      f-2     :     0.024501
      f+3     :     0.030869
      f-3     :     0.055851
  1 Cls       :     5.701600  s :     5.701600
      pz      :     3.850236  p :    11.359089
      px      :     3.733900
      py      :     3.774953
      dz2     :     0.007512  d :     0.051982
      dxz     :     0.006743
      dyz     :     0.004749
      dx2y2   :     0.017443
      dxy     :     0.015534
      f0      :     0.000248  f :     0.003879
      f+1     :     0.000408
      f-1     :     0.000413
      f+2     :     0.000115
      f-2     :     0.000455
      f+3     :     0.001192
      f-3     :     0.001047
  2 Cls       :     5.701598  s :     5.701598
      pz      :     3.850553  p :    11.359115
      px      :     3.696717
      py      :     3.811845
      dz2     :     0.007569  d :     0.051978
      dxz     :     0.008019
      dyz     :     0.003433
      dx2y2   :     0.017759
      dxy     :     0.015198
      f0      :     0.000246  f :     0.003879
      f+1     :     0.000500
      f-1     :     0.000326
      f+2     :     0.000195
      f-2     :     0.000376
      f+3     :     0.001131
      f-3     :     0.001105
  3 Cls       :     5.703942  s :     5.703942
      pz      :     3.812723  p :    11.353098
      px      :     3.714489
      py      :     3.825886
      dz2     :     0.006855  d :     0.049212
      dxz     :     0.005162
      dyz     :     0.003012
      dx2y2   :     0.018358
      dxy     :     0.015827
      f0      :     0.000226  f :     0.003695
      f+1     :     0.000364
      f-1     :     0.000341
      f+2     :     0.000148
      f-2     :     0.000327
      f+3     :     0.001145
      f-3     :     0.001145
  4 Cls       :     5.703957  s :     5.703957
      pz      :     3.812874  p :    11.353028
      px      :     3.745860
      py      :     3.794294
      dz2     :     0.006858  d :     0.049213
      dxz     :     0.004240
      dyz     :     0.003975
      dx2y2   :     0.017800
      dxy     :     0.016340
      f0      :     0.000226  f :     0.003695
      f+1     :     0.000292
      f-1     :     0.000413
      f+2     :     0.000090
      f-2     :     0.000389
      f+3     :     0.001202
      f-3     :     0.001082
  5 O s       :     3.706867  s :     3.706867
      pz      :     1.509205  p :     4.498695
      px      :     1.518096
      py      :     1.471394
      dz2     :     0.018781  d :     0.044445
      dxz     :     0.007733
      dyz     :     0.013234
      dx2y2   :     0.002511
      dxy     :     0.002187
      f0      :     0.000929  f :     0.002812
      f+1     :     0.000375
      f-1     :     0.000998
      f+2     :     0.000269
      f-2     :     0.000188
      f+3     :     0.000020
      f-3     :     0.000033

SPIN
  0 W s       :     0.033244  s :     0.033244
      pz      :     0.001928  p :     0.008326
      px      :     0.002648
      py      :     0.003749
      dz2     :     0.045118  d :     0.927050
      dxz     :     0.046913
      dyz     :     0.221446
      dx2y2   :     0.581156
      dxy     :     0.032418
      f0      :    -0.000570  f :    -0.002907
      f+1     :    -0.000705
      f-1     :    -0.000527
      f+2     :    -0.000264
      f-2     :    -0.000105
      f+3     :    -0.000130
      f-3     :    -0.000606
  1 Cls       :     0.000370  s :     0.000370
      pz      :     0.011735  p :     0.035515
      px      :     0.006523
      py      :     0.017258
      dz2     :     0.000233  d :     0.010431
      dxz     :     0.000881
      dyz     :     0.000891
      dx2y2   :     0.007125
      dxy     :     0.001302
      f0      :     0.000053  f :     0.000922
      f+1     :     0.000027
      f-1     :     0.000025
      f+2     :     0.000006
      f-2     :     0.000089
      f+3     :     0.000621
      f-3     :     0.000102
  2 Cls       :     0.000371  s :     0.000371
      pz      :     0.011531  p :     0.035508
      px      :    -0.001216
      py      :     0.025193
      dz2     :     0.000242  d :     0.010431
      dxz     :     0.001101
      dyz     :     0.000643
      dx2y2   :     0.005410
      dxy     :     0.003036
      f0      :     0.000052  f :     0.000922
      f+1     :     0.000028
      f-1     :     0.000024
      f+2     :     0.000014
      f-2     :     0.000081
      f+3     :     0.000702
      f-3     :     0.000021
  3 Cls       :     0.000202  s :     0.000202
      pz      :     0.003312  p :     0.021540
      px      :    -0.003660
      py      :     0.021887
      dz2     :     0.000170  d :     0.009626
      dxz     :     0.001199
      dyz     :     0.000152
      dx2y2   :     0.005146
      dxy     :     0.002959
      f0      :     0.000039  f :     0.000905
      f+1     :     0.000020
      f-1     :     0.000043
      f+2     :     0.000052
      f-2     :     0.000029
      f+3     :     0.000705
      f-3     :     0.000016
  4 Cls       :     0.000201  s :     0.000201
      pz      :     0.003399  p :     0.021542
      px      :     0.001559
      py      :     0.016583
      dz2     :     0.000173  d :     0.009628
      dxz     :     0.001116
      dyz     :     0.000275
      dx2y2   :     0.006839
      dxy     :     0.001226
      f0      :     0.000039  f :     0.000904
      f+1     :     0.000016
      f-1     :     0.000048
      f+2     :     0.000037
      f-2     :     0.000047
      f+3     :     0.000589
      f-3     :     0.000128
  5 O s       :    -0.000414  s :    -0.000414
      pz      :    -0.022129  p :    -0.127278
      px      :    -0.047965
      py      :    -0.057185
      dz2     :     0.000593  d :     0.002706
      dxz     :     0.000490
      dyz     :     0.000651
      dx2y2   :     0.000789
      dxy     :     0.000183
      f0      :     0.000059  f :     0.000255
      f+1     :     0.000032
      f-1     :     0.000065
      f+2     :     0.000059
      f-2     :     0.000021
      f+3     :     0.000002
      f-3     :     0.000017


                      *****************************
                      * MAYER POPULATION ANALYSIS *
                      *****************************

  NA   - Mulliken gross atomic population
  ZA   - Total nuclear charge
  QA   - Mulliken gross atomic charge
  VA   - Mayer's total valence
  BVA  - Mayer's bonded valence
  FA   - Mayer's free valence

  ATOM       NA         ZA         QA         VA         BVA        FA
  0 W     12.8686    14.0000     1.1314     6.3928     5.6891     0.7037
  1 Cl    17.4414    17.0000    -0.4414     0.9547     0.9501     0.0046
  2 Cl    17.4414    17.0000    -0.4414     0.9547     0.9502     0.0046
  3 Cl    17.4333    17.0000    -0.4333     0.9854     0.9829     0.0025
  4 Cl    17.4332    17.0000    -0.4332     0.9856     0.9831     0.0025
  5 O      8.3822     8.0000    -0.3822     2.3130     2.3053     0.0078

  Mayer bond orders larger than 0.100000
B(  0-W ,  1-Cl) :   0.8738 B(  0-W ,  2-Cl) :   0.8739 B(  0-W ,  3-Cl) :   0.8803 
B(  0-W ,  4-Cl) :   0.8805 B(  0-W ,  5-O ) :   2.1807 

-------
TIMINGS
-------

Total SCF time: 0 days 0 hours 0 min 20 sec 

Total time                  ....      20.523 sec
Sum of individual times     ....      20.242 sec  ( 98.6%)

Fock matrix formation       ....      18.586 sec  ( 90.6%)
  Split-RI-J                ....       1.899 sec  ( 10.2% of F)
  Chain of spheres X        ....      12.749 sec  ( 68.6% of F)
  XC integration            ....       3.833 sec  ( 20.6% of F)
    Basis function eval.    ....       0.548 sec  ( 14.3% of XC)
    Density eval.           ....       1.144 sec  ( 29.8% of XC)
    XC-Functional eval.     ....       0.110 sec  (  2.9% of XC)
    XC-Potential eval.      ....       1.624 sec  ( 42.4% of XC)
Diagonalization             ....       0.279 sec  (  1.4%)
Density matrix formation    ....       0.031 sec  (  0.2%)
Population analysis         ....       0.012 sec  (  0.1%)
Initial guess               ....       0.546 sec  (  2.7%)
Orbital Transformation      ....       0.147 sec  (  0.7%)
Orbital Orthonormalization  ....       0.000 sec  (  0.0%)
DIIS solution               ....       0.155 sec  (  0.8%)
Grid generation             ....       0.484 sec  (  2.4%)

Maximum memory used throughout the entire SCF-calculation: 70.0 MB

-------------------------   --------------------
FINAL SINGLE POINT ENERGY     -1982.819844719980
-------------------------   --------------------



           ************************************************************
           *        Program running with 6 parallel MPI-processes     *
           *              working on a common directory               *
           ************************************************************
------------------------------------------------------------------------------
                         ORCA SCF GRADIENT CALCULATION
------------------------------------------------------------------------------

 ... reading COSX grid (gridx3)
Gradient of the Kohn-Sham DFT energy:
Kohn-Sham wavefunction type      ... UKS
Hartree-Fock exchange scaling    ...    0.250
Number of operators              ...    2
Number of atoms                  ...    6
Basis set dimensions             ...  219
Integral neglect threshold       ... 2.5e-11
Integral primitive cutoff        ... 2.5e-12
SHARK Integral package           ... ON

Nuc. rep. gradient       (SHARK) ... done (  0.0 sec)
HCore & Overlap gradient (SHARK) ... done (  0.0 sec)
ECP gradient             (SHARK) ... done (  0.7 sec)
RI-J gradient            (SHARK) ... done (  0.3 sec)
COSX-gradient                    ... done (  1.6 sec)
Exchange-correlation gradient    ... done

------------------
CARTESIAN GRADIENT
------------------

   1   W   :   -0.005861333   -0.065702028   -0.146631277
   2   Cl  :   -0.003871154   -0.016418034    0.024778952
   3   Cl  :    0.001768546   -0.016337643    0.024695230
   4   Cl  :   -0.014670711    0.018708443    0.005682633
   5   Cl  :    0.018206850    0.016086691    0.005833572
   6   O   :    0.005055544    0.062856932    0.086105716

Difference to translation invariance:
           :    0.0006277421   -0.0008056413    0.0004648269

Difference to rotation invariance:
           :    0.0006081925   -0.0018722661    0.0050362480

Norm of the cartesian gradient     ...    0.2006062166
RMS gradient                       ...    0.0472833387
MAX gradient                       ...    0.1466312767

-------
TIMINGS
-------

Total SCF gradient time            ...        3.322 sec

One electron gradient       ....       0.737 sec  ( 22.2%)
RI-J Coulomb gradient       ....       0.250 sec  (  7.5%)
COSX gradient               ....       1.594 sec  ( 48.0%)
XC gradient                 ....       0.504 sec  ( 15.2%)

[...]
                            ***************************************

                                    ---------------------
                                    Active property flags
                                    ---------------------
   (+) Dipole Moment


------------------------------------------------------------------------------
                       ORCA ELECTRIC PROPERTIES CALCULATION
------------------------------------------------------------------------------

Dipole Moment Calculation                       ... on
Quadrupole Moment Calculation                   ... off
Polarizability Calculation                      ... off
GBWName                                         ... WCl4.gbw
Electron density                                ... WCl4.scfp
The origin for moment calculation is the CENTER OF MASS  = (-0.393064, -1.672105  0.462299)

-------------
DIPOLE MOMENT
-------------
                                X             Y             Z
Electronic contribution:      0.52452       2.98899      24.87696
Nuclear contribution   :     -0.51972      -2.96959     -24.73004
                        -----------------------------------------
Total Dipole Moment    :      0.00480       0.01940       0.14692
                        -----------------------------------------
Magnitude (a.u.)       :      0.14827
Magnitude (Debye)      :      0.37688



--------------------
Rotational spectrum 
--------------------
 
Rotational constants in cm-1:     0.037027     0.036676     0.023000 
Rotational constants in MHz :  1110.042579  1099.530096   689.528123 

 Dipole components along the rotational axes: 
x,y,z [a.u.] :    -0.003653     0.000326     0.148227 
x,y,z [Debye]:    -0.009286     0.000829     0.376762 

 


           ************************************************************
           *        Program running with 6 parallel MPI-processes     *
           *              working on a common directory               *
           ************************************************************

-------------------------------------------------------------------------------
                               ORCA SCF HESSIAN
-------------------------------------------------------------------------------

                   --------- SHARK INITIALIZATION DONE ---------

Hessian of the Kohn-Sham DFT energy:
Kohn-Sham wavefunction type                      ... UKS
Hartree-Fock exchange scaling                    ...    0.250
Number of operators                              ...    2
Number of atoms                                  ...    6
Basis set dimensions                             ...  219
Integral neglect threshold                       ... 2.5e-11
Integral primitive cutoff                        ... 2.5e-12

Setting up DFT Hessian calculations              ... 

HESS GRID
---------

General Integration Accuracy     IntAcc      ... 4.629
Radial Grid Type                 RadialGrid  ... OptM3 with GC (2021)
Angular Grid (max. ang.)         AngularGrid ... 5 (Lebedev-434)
Angular grid pruning method      GridPruning ... 4 (adaptive)
Weight generation scheme         WeightScheme... Becke
Basis function cutoff            BFCut       ... 1.0000e-11
Integration weight cutoff        WCut        ... 1.0000e-14
Angular grids for H and He will be reduced by one unit
Partially contracted basis set               ... off
Rotationally invariant grid construction     ... off

Total number of grid points                  ...    68438
Total number of batches                      ...     1073
Average number of points per batch           ...       63
Average number of grid points per atom       ...    11406

Building densities                               ... done   (      0.0 sec)
Calculating rho(r) on the grid                   ... done   (      0.1 sec)
Building xc-kernel on the grid                   ... done   (      0.0 sec)
                                                     done   (      0.6 sec)

Nuclear repulsion Hessian  (SHARK)               ... done   (      0.0 sec)

----------------------------------------------
Forming right-hand sides of CP-SCF equations     ...
----------------------------------------------
One electron integral derivatives  (SHARK)       ... done   (      0.0 sec)
Transforming the overlap derivative matrices     ... done   (      0.0 sec)
Making the Q(x) pseudodensities                  ... done   (      0.0 sec)
Adding the E*S(x)*S(y) terms to the Hessian      ... done   (      0.0 sec)
Calculating energy weighted overlap derivatives  ... done   (      0.0 sec)
F(y): ECP integral derivatives                   ... done   (      1.1 sec)
Two electron integral derivatives (SHARK-RI)     ... done   (     13.2 sec)
Exchange-correlation integral derivatives        ... done   (     10.7 sec)
tr(F(y)Q(x)) contribution to the Hessian         ... done   (      0.0 sec)
Response fock operator R(S(x)) (SHARK-RIJCOSX)   ... done   (      2.5 sec)
XC Response fock operator R(S(x))                ... done   (      2.1 sec)
tr(F(y)S(x)) contribution to the Hessian         ... done   (      0.0 sec)
Transforming and finalizing RHSs                 ... done   (      0.0 sec)

----------------------------------------------
Solving the CP-SCF equations (RIJCOSX)           ...
----------------------------------------------
     CP-SCF ITERATION   0:   1.0181e+00 (   1.6 sec   0/ 18 done)
     CP-SCF ITERATION   1:   1.1294e-01 (   1.4 sec   0/ 18 done)
     CP-SCF ITERATION   2:   5.2651e-02 (   1.4 sec   0/ 18 done)
     CP-SCF ITERATION   3:   2.2915e-02 (   1.4 sec   0/ 18 done)
     CP-SCF ITERATION   4:   1.0353e-02 (   1.4 sec   0/ 18 done)
     CP-SCF ITERATION   5:   5.6944e-03 (   1.4 sec   0/ 18 done)
     CP-SCF ITERATION   6:   2.0078e-03 (   1.4 sec   0/ 18 done)
     CP-SCF ITERATION   7:   7.0225e-04 (   1.4 sec   0/ 18 done)
     CP-SCF ITERATION   8:   1.7963e-04 (   1.4 sec  14/ 18 done)
     CP-SCF ITERATION   9:   4.5467e-05 (   0.5 sec  18/ 18 done)
                    *** THE CP-SCF HAS CONVERGED ***

                                                 ... done   (     13.6 sec)
Forming perturbed density Hessian contributions  ... done   (      0.0 sec)
2nd integral derivative contribs (SHARK-RI)      ... done   (     35.1 sec)
Exchange-correlation Hessian                     ... done   (      5.0 sec)
ECP integral 2nd derivatives                     ... done   (      4.2 sec)
Dipole derivatives                               ... (center of mass: -0.393064, -1.672105  0.462299)done   (      0.1 sec)

Total SCF Hessian time: 0 days 0 hours 1 min 28 sec 

Writing the Hessian file to the disk             ... done


Maximum memory used throughout the entire SCFHESS-calculation: 148.7 MB

-----------------------
VIBRATIONAL FREQUENCIES
-----------------------

Scaling factor for frequencies =  1.000000000  (already applied!)

   0:         0.00 cm**-1
   1:         0.00 cm**-1
   2:         0.00 cm**-1
   3:         0.00 cm**-1
   4:         0.00 cm**-1
   5:         0.00 cm**-1
   6:        40.85 cm**-1
   7:       140.87 cm**-1
   8:       151.11 cm**-1
   9:       152.78 cm**-1
  10:       178.17 cm**-1
  11:       234.64 cm**-1
  12:       238.61 cm**-1
  13:       295.51 cm**-1
  14:       342.41 cm**-1
  15:       345.20 cm**-1
  16:       354.48 cm**-1
  17:      1055.36 cm**-1


------------
NORMAL MODES
------------

These modes are the Cartesian displacements weighted by the diagonal matrix
M(i,i)=1/sqrt(m[i]) where m[i] is the mass of the displaced atom
Thus, these vectors are normalized but *not* orthogonal

                  0          1          2          3          4          5    
      0       0.000000   0.000000   0.000000   0.000000   0.000000   0.000000
      1       0.000000   0.000000   0.000000   0.000000   0.000000   0.000000
      2       0.000000   0.000000   0.000000   0.000000   0.000000   0.000000
      3       0.000000   0.000000   0.000000   0.000000   0.000000   0.000000
      4       0.000000   0.000000   0.000000   0.000000   0.000000   0.000000
      5       0.000000   0.000000   0.000000   0.000000   0.000000   0.000000
      6       0.000000   0.000000   0.000000   0.000000   0.000000   0.000000
      7       0.000000   0.000000   0.000000   0.000000   0.000000   0.000000
      8       0.000000   0.000000   0.000000   0.000000   0.000000   0.000000
      9       0.000000   0.000000   0.000000   0.000000   0.000000   0.000000
     10       0.000000   0.000000   0.000000   0.000000   0.000000   0.000000
     11       0.000000   0.000000   0.000000   0.000000   0.000000   0.000000
     12       0.000000   0.000000   0.000000   0.000000   0.000000   0.000000
     13       0.000000   0.000000   0.000000   0.000000   0.000000   0.000000
     14       0.000000   0.000000   0.000000   0.000000   0.000000   0.000000
     15       0.000000   0.000000   0.000000   0.000000   0.000000   0.000000
     16       0.000000   0.000000   0.000000   0.000000   0.000000   0.000000
     17       0.000000   0.000000   0.000000   0.000000   0.000000   0.000000
                  6          7          8          9         10         11    
      0       0.000192  -0.000008   0.103032   0.098659   0.005641   0.050079
      1       0.000186   0.034568  -0.095757   0.104308  -0.001914  -0.043739
      2       0.002486   0.280306   0.016504  -0.011109   0.000476   0.004089
      3       0.101066   0.137144   0.065331  -0.459556  -0.387084   0.082536
      4      -0.184547  -0.197366  -0.166418  -0.371735  -0.334980  -0.098236
      5      -0.460232  -0.367927  -0.173765   0.065292   0.039050   0.179653
      6       0.125518  -0.154723  -0.393164   0.154339   0.310045  -0.052260
      7       0.153021  -0.196244   0.475783   0.078018  -0.358682   0.088617
      8       0.451489  -0.391316  -0.040921   0.177104   0.039077  -0.032600
      9      -0.114468   0.160923  -0.361274   0.161535  -0.335908  -0.054780
     10      -0.042726   0.071940   0.446607   0.021345   0.394293   0.096438
     11       0.480949  -0.420232  -0.077658  -0.199295  -0.049753   0.012789
     12      -0.112635  -0.140106   0.032896  -0.476732   0.374235   0.081474
     13       0.073095   0.122195  -0.142656  -0.382960   0.312700  -0.137284
     14      -0.486431  -0.413890   0.191489   0.028327  -0.031289  -0.152968
     15      -0.001056  -0.007087   0.270151   0.241084   0.020964  -0.701724
     16       0.000432   0.044796  -0.258705   0.253548  -0.007544   0.614443
     17       0.002950   0.309728   0.033833  -0.030625   0.000991  -0.062221
                 12         13         14         15         16         17    
      0      -0.042447   0.000749  -0.208914   0.170722   0.007861  -0.001319
      1      -0.048041  -0.000004  -0.169442  -0.207819   0.011635  -0.010313
      2       0.006143  -0.000951   0.025095   0.019774   0.105555  -0.087478
      3       0.089037   0.304746   0.001714  -0.406135  -0.321856  -0.006630
      4       0.050621  -0.330740  -0.007371   0.453087   0.352928   0.007912
      5       0.016571   0.198759   0.001329  -0.174748  -0.191945   0.000899
      6      -0.115545   0.361859   0.487311   0.003060   0.346599   0.007719
      7      -0.060062   0.290380   0.401136   0.001760   0.278859   0.006759
      8       0.174917  -0.200215  -0.177353   0.000934  -0.176142   0.001011
      9      -0.120044  -0.368578   0.473334   0.021483  -0.365606  -0.007651
     10      -0.100329  -0.330757   0.414835   0.014548  -0.325533  -0.006303
     11      -0.152027  -0.117577   0.061415   0.003644  -0.098610   0.002789
     12       0.086441  -0.300248   0.012838  -0.413894   0.302397   0.006666
     13       0.044433   0.371674  -0.018542   0.497963  -0.370174  -0.007520
     14      -0.029933   0.124516  -0.003966   0.079884  -0.110981   0.002661
     15       0.620974  -0.003683   0.239719  -0.199067  -0.005097   0.014928
     16       0.696839  -0.001192   0.196391   0.244503   0.007942   0.116627
     17      -0.091702  -0.001223  -0.025618  -0.027166   0.067137   0.988932


-----------
IR SPECTRUM
-----------

 Mode   freq       eps      Int      T**2         TX        TY        TZ
       cm**-1   L/(mol*cm) km/mol    a.u.
----------------------------------------------------------------------------
  6:     40.85   0.000000    0.00  0.000000  (-0.000061 -0.000037 -0.000269)
  7:    140.87   0.000603    3.05  0.001337  (-0.000325  0.004757  0.036251)
  8:    151.11   0.000529    2.68  0.001094  ( 0.023980 -0.022527  0.003317)
  9:    152.78   0.000526    2.66  0.001073  ( 0.022261  0.023887 -0.002701)
 10:    178.17   0.000002    0.01  0.000003  ( 0.001745 -0.000611  0.000058)
 11:    234.64   0.000020    0.10  0.000027  ( 0.004144 -0.003147  0.000296)
 12:    238.61   0.000026    0.13  0.000034  (-0.004059 -0.004171  0.000524)
 13:    295.51   0.000001    0.01  0.000001  ( 0.000513 -0.000140 -0.001019)
 14:    342.41   0.026867  135.77  0.024486  (-0.121031 -0.098196  0.013958)
 15:    345.20   0.026219  132.50  0.023702  ( 0.097391 -0.118653  0.011767)
 16:    354.48   0.001802    9.11  0.001587  ( 0.004651  0.004151  0.039344)
 17:   1055.36   0.026165  132.23  0.007737  (-0.001410 -0.010366 -0.087334)

* The epsilon (eps) is given for a Dirac delta lineshape.
** The dipole moment derivative (T) already includes vibrational overlap.

The first frequency considered to be a vibration is 6
The total number of vibrations considered is 12


--------------------------
THERMOCHEMISTRY AT 298.15K
--------------------------

Temperature         ... 298.15 K
Pressure            ... 1.00 atm
Total Mass          ... 341.66 AMU

Throughout the following assumptions are being made:
  (1) The electronic state is orbitally nondegenerate
      but the spin degeneracy is treated
  (2) There are no thermally accessible electronically excited states
  (3) Hindered rotations indicated by low frequency modes are not
      treated as such but are treated as vibrations and this may
      cause some error
  (4) All equations used are the standard statistical mechanics
      equations for an ideal gas
  (5) All vibrations are strictly harmonic

freq.      40.85  E(vib)   ...       0.54 
freq.     140.87  E(vib)   ...       0.41 
freq.     151.11  E(vib)   ...       0.40 
freq.     152.78  E(vib)   ...       0.40 
freq.     178.17  E(vib)   ...       0.37 
freq.     234.64  E(vib)   ...       0.32 
freq.     238.61  E(vib)   ...       0.32 
freq.     295.51  E(vib)   ...       0.27 
freq.     342.41  E(vib)   ...       0.23 
freq.     345.20  E(vib)   ...       0.23 
freq.     354.48  E(vib)   ...       0.22 
freq.    1055.36  E(vib)   ...       0.02 

------------
INNER ENERGY
------------

The inner energy is: U= E(el) + E(ZPE) + E(vib) + E(rot) + E(trans)
    E(el)   - is the total energy from the electronic structure calculation
              = E(kin-el) + E(nuc-el) + E(el-el) + E(nuc-nuc)
    E(ZPE)  - the the zero temperature vibrational energy from the frequency calculation
    E(vib)  - the the finite temperature correction to E(ZPE) due to population
              of excited vibrational states
    E(rot)  - is the rotational thermal energy
    E(trans)- is the translational thermal energy

Summary of contributions to the inner energy U:
Electronic energy                ...  -1982.89575147 Eh
Zero point energy                ...      0.00804190 Eh       5.05 kcal/mol
Thermal vibrational correction   ...      0.00594879 Eh       3.73 kcal/mol
Thermal rotational correction    ...      0.00141627 Eh       0.89 kcal/mol
Thermal translational correction ...      0.00141627 Eh       0.89 kcal/mol
-----------------------------------------------------------------------
Total thermal energy                  -1982.87892824 Eh


Summary of corrections to the electronic energy:
(perhaps to be used in another calculation)
Total thermal correction                  0.00878133 Eh       5.51 kcal/mol
Non-thermal (ZPE) correction              0.00804190 Eh       5.05 kcal/mol
-----------------------------------------------------------------------
Total correction                          0.01682323 Eh      10.56 kcal/mol


--------
ENTHALPY
--------

The enthalpy is H = U + kB*T
                kB is Boltzmann's constant
Total free energy                 ...  -1982.87892824 Eh 
Thermal Enthalpy correction       ...      0.00094421 Eh       0.59 kcal/mol
-----------------------------------------------------------------------
Total Enthalpy                    ...  -1982.87798403 Eh


Note: Only C1 symmetry has been detected, increase convergence thresholds 
      if your molecule has a higher symmetry. Symmetry factor of 1.0 is   
      used for the rotational entropy correction. 
 

Note: Rotational entropy computed according to Herzberg 
Infrared and Raman Spectra, Chapter V,1, Van Nostrand Reinhold, 1945 
Point Group:  C1, Symmetry Number:   1  
Rotational constants in cm-1:     0.037027     0.036676     0.023000 

Vibrational entropy computed according to the QRRHO of S. Grimme
Chem.Eur.J. 2012 18 9955


-------
ENTROPY
-------

The entropy contributions are T*S = T*(S(el)+S(vib)+S(rot)+S(trans))
     S(el)   - electronic entropy
     S(vib)  - vibrational entropy
     S(rot)  - rotational entropy
     S(trans)- translational entropy
The entropies will be listed as multiplied by the temperature to get
units of energy

Electronic entropy                ...      0.00065446 Eh      0.41 kcal/mol
Vibrational entropy               ...      0.01084470 Eh      6.81 kcal/mol
Rotational entropy                ...      0.01440827 Eh      9.04 kcal/mol
Translational entropy             ...      0.02061134 Eh     12.93 kcal/mol
-----------------------------------------------------------------------
Final entropy term                ...      0.04651877 Eh     29.19 kcal/mol

In case the symmetry of your molecule has not been determined correctly
or in case you have a reason to use a different symmetry number we print 
out the resulting rotational entropy values for sn=1,12 :
 --------------------------------------------------------
|  sn= 1 | S(rot)=       0.01440827 Eh      9.04 kcal/mol|
|  sn= 2 | S(rot)=       0.01375381 Eh      8.63 kcal/mol|
|  sn= 3 | S(rot)=       0.01337098 Eh      8.39 kcal/mol|
|  sn= 4 | S(rot)=       0.01309936 Eh      8.22 kcal/mol|
|  sn= 5 | S(rot)=       0.01288867 Eh      8.09 kcal/mol|
|  sn= 6 | S(rot)=       0.01271652 Eh      7.98 kcal/mol|
|  sn= 7 | S(rot)=       0.01257098 Eh      7.89 kcal/mol|
|  sn= 8 | S(rot)=       0.01244490 Eh      7.81 kcal/mol|
|  sn= 9 | S(rot)=       0.01233369 Eh      7.74 kcal/mol|
|  sn=10 | S(rot)=       0.01223421 Eh      7.68 kcal/mol|
|  sn=11 | S(rot)=       0.01214422 Eh      7.62 kcal/mol|
|  sn=12 | S(rot)=       0.01206207 Eh      7.57 kcal/mol|
 --------------------------------------------------------


-------------------
GIBBS FREE ENERGY
-------------------

The Gibbs free energy is G = H - T*S

Total enthalpy                    ...  -1982.87798403 Eh 
Total entropy correction          ...     -0.04651877 Eh    -29.19 kcal/mol
-----------------------------------------------------------------------
Final Gibbs free energy         ...  -1982.92450280 Eh

For completeness - the Gibbs free energy minus the electronic energy
G-E(el)                           ...     -0.02875133 Eh    -18.04 kcal/mol


Timings for individual modules:

Sum of individual times         ...      298.221 sec (=   4.970 min)
GTO integral calculation        ...        9.855 sec (=   0.164 min)   3.3 %
SCF iterations                  ...      152.051 sec (=   2.534 min)  51.0 %
SCF Gradient evaluation         ...       47.318 sec (=   0.789 min)  15.9 %
Geometry relaxation             ...        0.084 sec (=   0.001 min)   0.0 %
Analytical frequency calculation...       88.912 sec (=   1.482 min)  29.8 %
                             ****ORCA TERMINATED NORMALLY****
TOTAL RUN TIME: 0 days 0 hours 5 minutes 2 seconds 905 msec
