
                                 *****************
                                 * O   R   C   A *
                                 *****************

                                            #,                                       
                                            ###                                      
                                            ####                                     
                                            #####                                    
                                            ######                                   
                                           ########,                                 
                                     ,,################,,,,,                         
                               ,,#################################,,                 
                          ,,##########################################,,             
                       ,#########################################, ''#####,          
                    ,#############################################,,   '####,        
                  ,##################################################,,,,####,       
                ,###########''''           ''''###############################       
              ,#####''   ,,,,##########,,,,          '''####'''          '####       
            ,##' ,,,,###########################,,,                        '##       
           ' ,,###''''                  '''############,,,                           
         ,,##''                                '''############,,,,        ,,,,,,###''
      ,#''                                            '''#######################'''  
     '                                                          ''''####''''         
             ,#######,   #######,   ,#######,      ##                                
            ,#'     '#,  ##    ##  ,#'     '#,    #''#        ######   ,####,        
            ##       ##  ##   ,#'  ##            #'  '#       #        #'  '#        
            ##       ##  #######   ##           ,######,      #####,   #    #        
            '#,     ,#'  ##    ##  '#,     ,#' ,#      #,         ##   #,  ,#        
             '#######'   ##     ##  '#######'  #'      '#     #####' # '####'        



                  #######################################################
                  #                        -***-                        #
                  #          Department of theory and spectroscopy      #
                  #    Directorship and core code : Frank Neese         #
                  #        Max Planck Institute fuer Kohlenforschung    #
                  #                Kaiser Wilhelm Platz 1               #
                  #                 D-45470 Muelheim/Ruhr               #
                  #                      Germany                        #
                  #                                                     #
                  #                  All rights reserved                #
                  #                        -***-                        #
                  #######################################################


                         Program Version 5.0.4 -  RELEASE  -


 With contributions from (in alphabetic order):
   Daniel Aravena         : Magnetic Suceptibility
   Michael Atanasov       : Ab Initio Ligand Field Theory (pilot matlab implementation)
   Alexander A. Auer      : GIAO ZORA, VPT2 properties, NMR spectrum
   Ute Becker             : Parallelization
   Giovanni Bistoni       : ED, misc. LED, open-shell LED, HFLD
   Martin Brehm           : Molecular dynamics
   Dmytro Bykov           : SCF Hessian
   Vijay G. Chilkuri      : MRCI spin determinant printing, contributions to CSF-ICE
   Dipayan Datta          : RHF DLPNO-CCSD density
   Achintya Kumar Dutta   : EOM-CC, STEOM-CC
   Dmitry Ganyushin       : Spin-Orbit,Spin-Spin,Magnetic field MRCI
   Miquel Garcia          : C-PCM and meta-GGA Hessian, CC/C-PCM, Gaussian charge scheme
   Yang Guo               : DLPNO-NEVPT2, F12-NEVPT2, CIM, IAO-localization
   Andreas Hansen         : Spin unrestricted coupled pair/coupled cluster methods
   Benjamin Helmich-Paris : MC-RPA, TRAH-SCF, COSX integrals
   Lee Huntington         : MR-EOM, pCC
   Robert Izsak           : Overlap fitted RIJCOSX, COSX-SCS-MP3, EOM
   Marcus Kettner         : VPT2
   Christian Kollmar      : KDIIS, OOCD, Brueckner-CCSD(T), CCSD density, CASPT2, CASPT2-K
   Simone Kossmann        : Meta GGA functionals, TD-DFT gradient, OOMP2, MP2 Hessian
   Martin Krupicka        : Initial AUTO-CI
   Lucas Lang             : DCDCAS
   Marvin Lechner         : AUTO-CI (C++ implementation), FIC-MRCC
   Dagmar Lenk            : GEPOL surface, SMD
   Dimitrios Liakos       : Extrapolation schemes; Compound Job, initial MDCI parallelization
   Dimitrios Manganas     : Further ROCIS development; embedding schemes
   Dimitrios Pantazis     : SARC Basis sets
   Anastasios Papadopoulos: AUTO-CI, single reference methods and gradients
   Taras Petrenko         : DFT Hessian,TD-DFT gradient, ASA, ECA, R-Raman, ABS, FL, XAS/XES, NRVS
   Peter Pinski           : DLPNO-MP2, DLPNO-MP2 Gradient
   Christoph Reimann      : Effective Core Potentials
   Marius Retegan         : Local ZFS, SOC
   Christoph Riplinger    : Optimizer, TS searches, QM/MM, DLPNO-CCSD(T), (RO)-DLPNO pert. Triples
   Tobias Risthaus        : Range-separated hybrids, TD-DFT gradient, RPA, STAB
   Michael Roemelt        : Original ROCIS implementation
   Masaaki Saitow         : Open-shell DLPNO-CCSD energy and density
   Barbara Sandhoefer     : DKH picture change effects
   Avijit Sen             : IP-ROCIS
   Kantharuban Sivalingam : CASSCF convergence, NEVPT2, FIC-MRCI
   Bernardo de Souza      : ESD, SOC TD-DFT
   Georgi Stoychev        : AutoAux, RI-MP2 NMR, DLPNO-MP2 response
   Willem Van den Heuvel  : Paramagnetic NMR
   Boris Wezisla          : Elementary symmetry handling
   Frank Wennmohs         : Technical directorship


 We gratefully acknowledge several colleagues who have allowed us to
 interface, adapt or use parts of their codes:
   Stefan Grimme, W. Hujo, H. Kruse, P. Pracht,  : VdW corrections, initial TS optimization,
                  C. Bannwarth, S. Ehlert          DFT functionals, gCP, sTDA/sTD-DF
   Ed Valeev, F. Pavosevic, A. Kumar             : LibInt (2-el integral package), F12 methods
   Garnet Chan, S. Sharma, J. Yang, R. Olivares  : DMRG
   Ulf Ekstrom                                   : XCFun DFT Library
   Mihaly Kallay                                 : mrcc  (arbitrary order and MRCC methods)
   Jiri Pittner, Ondrej Demel                    : Mk-CCSD
   Frank Weinhold                                : gennbo (NPA and NBO analysis)
   Christopher J. Cramer and Donald G. Truhlar   : smd solvation model
   Lars Goerigk                                  : TD-DFT with DH, B97 family of functionals
   V. Asgeirsson, H. Jonsson                     : NEB implementation
   FAccTs GmbH                                   : IRC, NEB, NEB-TS, DLPNO-Multilevel, CI-OPT
                                                   MM, QMMM, 2- and 3-layer-ONIOM, Crystal-QMMM,
                                                   LR-CPCM, SF, NACMEs, symmetry and pop. for TD-DFT,
                                                   nearIR, NL-DFT gradient (VV10), updates on ESD,
                                                   ML-optimized integration grids
   S Lehtola, MJT Oliveira, MAL Marques          : LibXC Library
   Liviu Ungur et al                             : ANISO software


 Your calculation uses the libint2 library for the computation of 2-el integrals
 For citations please refer to: http://libint.valeyev.net

 Your ORCA version has been built with support for libXC version: 5.1.0
 For citations please refer to: https://tddft.org/programs/libxc/

 This ORCA versions uses:
   CBLAS   interface :  Fast vector & matrix operations
   LAPACKE interface :  Fast linear algebra routines
   SCALAPACK package :  Parallel linear algebra routines
   Shared memory     :  Shared parallel matrices
   BLAS/LAPACK       :  OpenBLAS 0.3.15  USE64BITINT DYNAMIC_ARCH NO_AFFINITY Haswell SINGLE_THREADED
        Core in use  :  Haswell
   Copyright (c) 2011-2014, The OpenBLAS Project


================================================================================

cite the ECPs for Ag [Def2-ECP] as follows:
Ce-Yb(ecp-28): M. Dolg, H. Stoll, H.Preuss, J. Chem. Phys., 1989, 90, 1730-1734.
Y-Cd(ecp-28), Hf-Hg(ecp-46): D. Andrae,U. Haeussermann, M. Dolg, H. Stoll, H. Preuss, Theor. Chim. Acta, 1990, 77, 123-141.
In-Sb(ecp-28), Tl-Bi(ecp-46): B. Metz, H. Stoll, M. Dolg, J. Chem. Phys., 2000, 113, 2563-2569.
Te-Xe(ecp-28), Po-Rn(ecp-46): K. A. Peterson, D. Figgen, E. Goll, H. Stoll, M. Dolg, J. Chem. Phys., 2003, 119, 11113-11123.
Rb(ecp-28), Cs(ecp-46): T. Leininger, A. Nicklass, W. Kuechle, H. Stoll, M. Dolg, A. Bergner, Chem. Phys. Lett., 1996, 255, 274-280.
Sr(ecp-28), Ba(ecp-46): M. Kaupp, P. V. Schleyer, H. Stoll and H. Preuss, J. Chem. Phys., 1991, 94, 1360-1366.
La(ecp-46): M. Dolg, H. Stoll, A. Savin, H. Preuss, Theor. Chim. Acta, 1989, 75, 173-194.
Lu(ecp-28): X. Cao, M. Dolg, J. Chem. Phys., 2001, 115, 7348-7355.

ECP parameters for Ag [Def2-ECP] have been obtained from:
TURBOMOLE (7.0.2)

----- Orbital basis set information -----
Your calculation utilizes the basis: def2-TZVP
   F. Weigend and R. Ahlrichs, Phys. Chem. Chem. Phys. 7, 3297 (2005).

----- AuxJ basis set information -----
Your calculation utilizes the auxiliary basis: def2/J
   F. Weigend, Phys. Chem. Chem. Phys. 8, 1057 (2006).

================================================================================
                                        WARNINGS
                       Please study these warnings very carefully!
================================================================================


WARNING: Geometry Optimization
  ===> : Switching off AutoStart
         For restart on a previous wavefunction, please use MOREAD

INFO   : the flag for use of the SHARK integral package has been found!

================================================================================
                                       INPUT FILE
================================================================================
NAME = agnh3.inp
|  1> # avogadro generated ORCA file
|  2> # H6N2Ag | Geometry Optimization 
|  3> # 
|  4> ! Opt PBE0 def2-TZVP 
|  5> 
|  6> %maxcore 1820
|  7> 
|  8> %pal
|  9>    nprocs 4
| 10> end
| 11> * xyz 1 1
| 12>    Ag     3.403000    0.500000    0.000000
| 13>    N      2.536900    0.000000    0.000000
| 14>    H      2.000000   -0.310000    0.000000
| 15>    H      2.226900    0.536900    0.000000
| 16>    H      2.846900   -0.536900    0.000000
| 17>    N      4.269000    0.000000    0.000000
| 18>    H      4.805900   -0.310000    0.000000
| 19>    H      4.579000    0.536900    0.000000
| 20>    H      3.959000   -0.536900    0.000000
| 21> *
| 22> 
| 23> 
| 24> 
| 25>                          ****END OF INPUT****
================================================================================

                       *****************************
                       * Geometry Optimization Run *
                       *****************************

Geometry optimization settings:
Update method            Update   .... BFGS
Choice of coordinates    CoordSys .... Z-matrix Internals
Initial Hessian          InHess   .... Almoef's Model

Convergence Tolerances:
Energy Change            TolE     ....  5.0000e-06 Eh
Max. Gradient            TolMAXG  ....  3.0000e-04 Eh/bohr
RMS Gradient             TolRMSG  ....  1.0000e-04 Eh/bohr
Max. Displacement        TolMAXD  ....  4.0000e-03 bohr
RMS Displacement         TolRMSD  ....  2.0000e-03 bohr
Strict Convergence                ....  False
------------------------------------------------------------------------------
                        ORCA OPTIMIZATION COORDINATE SETUP
------------------------------------------------------------------------------

The optimization will be done in new redundant internal coordinates
Making redundant internal coordinates   ...  (new redundants) done
Evaluating the initial hessian          ...  (Almloef) done
Evaluating the coordinates              ...  done
Calculating the B-matrix                .... done
Calculating the G-matrix                .... done
Diagonalizing the G-matrix              .... done
The first mode is                       ....  111
The number of degrees of freedom        ....   21

    -----------------------------------------------------------------
                    Redundant Internal Coordinates


    -----------------------------------------------------------------
         Definition                    Initial Value    Approx d2E/dq
    -----------------------------------------------------------------
      1. B(N   1,Ag  0)                  1.0001        23.720144   
      2. B(H   2,N   1)                  0.6200         1.813278   
      3. B(H   2,Ag  0)                  1.6200         0.519892   
      4. B(H   3,N   1)                  0.6200         1.813278   
      5. B(H   3,Ag  0)                  1.1767         2.650071   
      6. B(H   4,N   1)                  0.6200         1.813278   
      7. B(H   4,Ag  0)                  1.1766         2.650750   
      8. B(N   5,N   1)                  1.7321         0.142631   
      9. B(N   5,Ag  0)                  1.0000        23.727691   
     10. B(H   6,N   5)                  0.6200         1.813278   
     11. B(H   6,Ag  0)                  1.6199         0.520057   
     12. B(H   7,N   5)                  0.6200         1.813278   
     13. B(H   7,Ag  0)                  1.1766         2.651044   
     14. B(H   8,N   5)                  0.6200         1.813278   
     15. B(H   8,Ag  0)                  1.1766         2.651210   
     16. A(H   4,Ag  0,H   7)          120.0023         0.819915   
     17. A(H   2,Ag  0,H   7)          151.7979         0.594526   
     18. A(H   6,Ag  0,H   7)           31.7983         0.594562   
     19. A(N   5,Ag  0,H   7)           31.7979         1.404729   
     20. A(H   3,Ag  0,H   8)          119.9979         0.819883   
     21. A(H   4,Ag  0,H   8)           56.4059         0.819926   
     22. A(H   3,Ag  0,H   4)           63.5919         0.819855   
     23. A(H   4,Ag  0,N   5)           88.2044         1.404696   
     24. A(N   5,Ag  0,H   8)           31.7985         1.404748   
     25. A(H   6,Ag  0,H   8)           31.7981         0.594569   
     26. A(N   1,Ag  0,H   4)           31.7970         1.404601   
     27. A(H   2,Ag  0,N   5)          120.0000         0.998980   
     28. A(H   3,Ag  0,N   5)          151.7963         1.404620   
     29. A(H   2,Ag  0,H   4)           31.7956         0.594513   
     30. A(H   2,Ag  0,H   8)           88.2015         0.594533   
     31. A(N   1,Ag  0,H   8)           88.2030         1.404653   
     32. A(H   2,Ag  0,H   6)          119.9996         0.438655   
     33. A(N   1,Ag  0,H   3)           31.7949         1.404525   
     34. A(N   1,Ag  0,H   6)          120.0011         0.998980   
     35. A(H   2,Ag  0,H   3)           31.7964         0.594484   
     36. A(H   7,Ag  0,H   8)           63.5964         0.819944   
     37. A(H   3,Ag  0,H   6)          151.7960         0.594520   
     38. A(H   4,Ag  0,H   6)           88.2040         0.594550   
     39. A(N   1,Ag  0,N   5)          120.0014         2.457229   
     40. A(N   1,Ag  0,H   7)          151.7993         1.404635   
     41. A(Ag  0,N   1,H   3)           90.0038         1.074160   
     42. A(H   2,N   1,H   4)           90.0000         0.498846   
     43. A(H   4,N   1,N   5)           59.9983         0.354197   
     44. A(H   3,N   1,N   5)          120.0017         0.354197   
     45. A(Ag  0,N   1,H   4)           89.9962         1.074160   
     46. A(H   2,N   1,N   5)          149.9983         0.354197   
     47. A(H   2,N   1,H   3)           90.0000         0.498846   
     48. A(Ag  0,N   1,N   5)           29.9979         0.726463   
     49. A(Ag  0,H   3,N   1)           58.2013         0.636285   
     50. A(Ag  0,H   4,N   1)           58.2068         0.636317   
     51. A(Ag  0,N   5,H   7)           90.0009         1.074231   
     52. A(N   1,N   5,H   6)          149.9983         0.354197   
     53. A(H   6,N   5,H   8)           90.0000         0.498846   
     54. A(N   1,N   5,H   8)           59.9983         0.354197   
     55. A(Ag  0,N   5,H   8)           89.9991         1.074231   
     56. A(Ag  0,N   5,N   1)           30.0007         0.726509   
     57. A(H   6,N   5,H   7)           90.0000         0.498846   
     58. A(N   1,N   5,H   7)          120.0017         0.354197   
     59. A(Ag  0,H   7,N   5)           58.2011         0.636330   
     60. A(Ag  0,H   8,N   5)           58.2025         0.636338   
     61. D(H   3,N   1,Ag  0,H   7)    180.0000         8.212820   
     62. D(N   5,N   1,Ag  0,H   3)    180.0000         8.212820   
     63. D(N   5,N   1,Ag  0,H   4)      0.0000         8.212820   
     64. D(H   4,N   1,Ag  0,H   3)    180.0000         8.212820   
     65. D(H   4,N   1,Ag  0,H   7)      0.0000         8.212820   
     66. D(H   3,N   1,Ag  0,H   8)    180.0000         8.212820   
     67. D(H   4,N   1,Ag  0,H   8)      0.0000         8.212820   
     68. D(N   5,N   1,Ag  0,H   6)      0.0000         8.212820   
     69. D(N   5,N   1,Ag  0,H   7)      0.0000         8.212820   
     70. D(H   3,N   1,Ag  0,H   6)    180.0000         8.212820   
     71. D(N   5,N   1,Ag  0,H   8)      0.0000         8.212820   
     72. D(H   3,N   1,Ag  0,H   4)    180.0000         8.212820   
     73. D(H   4,N   1,Ag  0,H   6)      0.0000         8.212820   
     74. D(H   3,N   1,Ag  0,N   5)    180.0000         8.212820   
     75. D(H   4,N   1,Ag  0,N   5)      0.0000         8.212820   
     76. D(Ag  0,H   3,N   1,N   5)      0.0000        14.969602   
     77. D(Ag  0,H   3,N   1,H   2)    180.0000        14.969602   
     78. D(N   1,H   3,Ag  0,H   8)      0.0000         0.357143   
     79. D(N   1,H   3,Ag  0,H   6)      0.0000         0.357143   
     80. D(N   1,H   3,Ag  0,N   5)      0.0000         0.357143   
     81. D(N   1,H   3,Ag  0,H   2)      0.0000         0.357143   
     82. D(Ag  0,H   4,N   1,N   5)      0.0000        14.969602   
     83. D(N   1,H   4,Ag  0,H   6)    180.0000         0.357360   
     84. D(N   1,H   4,Ag  0,N   5)    180.0000         0.357360   
     85. D(N   1,H   4,Ag  0,H   2)      0.0000         0.357360   
     86. D(N   1,H   4,Ag  0,H   7)    180.0000         0.357360   
     87. D(Ag  0,H   4,N   1,H   2)    180.0000        14.969602   
     88. D(N   1,H   4,Ag  0,H   8)    180.0000         0.357360   
     89. D(N   1,N   5,Ag  0,H   4)      0.0000         8.219497   
     90. D(N   1,N   5,Ag  0,H   3)      0.0000         8.219497   
     91. D(H   8,N   5,N   1,H   4)      0.0000         0.003405   
     92. D(H   8,N   5,N   1,H   3)    180.0000         0.003405   
     93. D(H   8,N   5,N   1,H   2)      0.0000         0.003405   
     94. D(H   7,N   5,N   1,H   4)    180.0000         0.003405   
     95. D(H   7,N   5,N   1,H   3)      0.0000         0.003405   
     96. D(H   7,N   5,N   1,H   2)    180.0000         0.003405   
     97. D(H   7,N   5,N   1,Ag  0)      0.0000         0.003405   
     98. D(H   6,N   5,N   1,H   4)      0.0000         0.003405   
     99. D(H   6,N   5,N   1,H   3)    180.0000         0.003405   
    100. D(H   6,N   5,N   1,H   2)      0.0000         0.003405   
    101. D(Ag  0,N   5,N   1,H   4)    180.0000         0.003405   
    102. D(Ag  0,N   5,N   1,H   3)      0.0000         0.003405   
    103. D(Ag  0,N   5,N   1,H   2)    180.0000         0.003405   
    104. D(H   8,N   5,Ag  0,H   7)    180.0000         8.219497   
    105. D(H   8,N   5,Ag  0,H   4)      0.0000         8.219497   
    106. D(H   6,N   5,N   1,Ag  0)    180.0000         0.003405   
    107. D(H   8,N   5,Ag  0,H   3)      0.0000         8.219497   
    108. D(H   8,N   5,Ag  0,H   2)      0.0000         8.219497   
    109. D(H   8,N   5,Ag  0,N   1)      0.0000         8.219497   
    110. D(H   7,N   5,Ag  0,H   8)    180.0000         8.219497   
    111. D(H   7,N   5,Ag  0,H   4)    180.0000         8.219497   
    112. D(H   7,N   5,Ag  0,H   3)    180.0000         8.219497   
    113. D(H   7,N   5,Ag  0,H   2)    180.0000         8.219497   
    114. D(H   8,N   5,N   1,Ag  0)    180.0000         0.003405   
    115. D(H   7,N   5,Ag  0,N   1)    180.0000         8.219497   
    116. D(N   1,N   5,Ag  0,H   8)      0.0000         8.219497   
    117. D(N   1,N   5,Ag  0,H   7)    180.0000         8.219497   
    118. D(N   1,N   5,Ag  0,H   2)      0.0000         8.219497   
    119. D(N   5,H   7,H   3,N   1)      0.0000         0.001504   
    120. D(N   5,H   7,Ag  0,H   6)      0.0000         0.357455   
    121. D(N   5,H   7,Ag  0,H   4)      0.0000         0.357455   
    122. D(N   5,H   7,Ag  0,H   2)      0.0000         0.357455   
    123. D(N   5,H   7,Ag  0,N   1)      0.0000         0.357455   
    124. D(Ag  0,H   7,N   5,H   6)    180.0000        14.969602   
    125. D(Ag  0,H   7,N   5,N   1)      0.0000        14.969602   
    126. D(Ag  0,H   8,N   5,H   6)    180.0000        14.969602   
    127. D(Ag  0,H   8,N   5,N   1)      0.0000        14.969602   
    128. D(N   5,H   8,Ag  0,H   6)      0.0000         0.357508   
    129. D(N   5,H   8,Ag  0,H   4)    180.0000         0.357508   
    130. D(N   5,H   8,Ag  0,H   3)    180.0000         0.357508   
    131. D(N   5,H   8,Ag  0,H   2)    180.0000         0.357508   
    132. D(N   5,H   8,Ag  0,N   1)    180.0000         0.357508   
    -----------------------------------------------------------------

Number of atoms                         .... 9
Number of degrees of freedom            .... 132

         *************************************************************
         *                GEOMETRY OPTIMIZATION CYCLE   1            *
         *************************************************************
---------------------------------
CARTESIAN COORDINATES (ANGSTROEM)
---------------------------------
  Ag     3.403000    0.500000    0.000000
  N      2.536900    0.000000    0.000000
  H      2.000000   -0.310000    0.000000
  H      2.226900    0.536900    0.000000
  H      2.846900   -0.536900    0.000000
  N      4.269000    0.000000    0.000000
  H      4.805900   -0.310000    0.000000
  H      4.579000    0.536900    0.000000
  H      3.959000   -0.536900    0.000000

----------------------------
CARTESIAN COORDINATES (A.U.)
----------------------------
  NO LB      ZA    FRAG     MASS         X           Y           Z
   0 Ag   19.0000*   0   107.870    6.430738    0.944863    0.000000
   1 N     7.0000    0    14.007    4.794046    0.000000    0.000000
   2 H     1.0000    0     1.008    3.779452   -0.585815    0.000000
   3 H     1.0000    0     1.008    4.208231    1.014594    0.000000
   4 H     1.0000    0     1.008    5.379861   -1.014594    0.000000
   5 N     7.0000    0    14.007    8.067241    0.000000    0.000000
   6 H     1.0000    0     1.008    9.081835   -0.585815    0.000000
   7 H     1.0000    0     1.008    8.653056    1.014594    0.000000
   8 H     1.0000    0     1.008    7.481426   -1.014594    0.000000
* core charge reduced due to ECP

--------------------------------
INTERNAL COORDINATES (ANGSTROEM)
--------------------------------
 Ag     0   0   0     0.000000000000     0.00000000     0.00000000
 N      1   0   0     1.000064602913     0.00000000     0.00000000
 H      2   1   0     0.619969039550   179.99621114     0.00000000
 H      2   1   3     0.619969039550    90.00378886   180.00000000
 H      2   1   4     0.619969039550    89.99621114   180.00000000
 N      1   2   4     0.999977999758   120.00140911   180.00000000
 H      6   1   2     0.619969039550   179.99907581     0.00000000
 H      6   1   2     0.619969039550    90.00092419   180.00000000
 H      6   1   2     0.619969039550    89.99907581     0.00000000

---------------------------
INTERNAL COORDINATES (A.U.)
---------------------------
 Ag     0   0   0     0.000000000000     0.00000000     0.00000000
 N      1   0   0     1.889848215735     0.00000000     0.00000000
 H      2   1   0     1.171571696259   179.99621114     0.00000000
 H      2   1   3     1.171571696259    90.00378886   180.00000000
 H      2   1   4     1.171571696259    89.99621114   180.00000000
 N      1   2   4     1.889684559489   120.00140911   180.00000000
 H      6   1   2     1.171571696259   179.99907581     0.00000000
 H      6   1   2     1.171571696259    90.00092419   180.00000000
 H      6   1   2     1.171571696259    89.99907581     0.00000000

---------------------
BASIS SET INFORMATION
---------------------
There are 3 groups of distinct atoms

 Group   1 Type Ag  : 7s7p6d1f contracted to 6s4p3d1f pattern {211111/4111/411/1}
 Group   2 Type N   : 11s6p2d1f contracted to 5s3p2d1f pattern {62111/411/11/1}
 Group   3 Type H   : 5s1p contracted to 3s1p pattern {311/1}

Atom   0Ag   basis set group =>   1
Atom   1N    basis set group =>   2
Atom   2H    basis set group =>   3
Atom   3H    basis set group =>   3
Atom   4H    basis set group =>   3
Atom   5N    basis set group =>   2
Atom   6H    basis set group =>   3
Atom   7H    basis set group =>   3
Atom   8H    basis set group =>   3
---------------------------------
AUXILIARY/J BASIS SET INFORMATION
---------------------------------
There are 3 groups of distinct atoms

 Group   1 Type Ag  : 11s5p5d3f3g contracted to 8s5p5d2f3g pattern {41111111/11111/11111/21/111}
 Group   2 Type N   : 12s5p4d2f1g contracted to 6s4p3d1f1g pattern {711111/2111/211/2/1}
 Group   3 Type H   : 5s2p1d contracted to 3s1p1d pattern {311/2/1}

Atom   0Ag   basis set group =>   1
Atom   1N    basis set group =>   2
Atom   2H    basis set group =>   3
Atom   3H    basis set group =>   3
Atom   4H    basis set group =>   3
Atom   5N    basis set group =>   2
Atom   6H    basis set group =>   3
Atom   7H    basis set group =>   3
Atom   8H    basis set group =>   3
-------------------------
ECP PARAMETER INFORMATION
-------------------------

 Group 1, Type Ag ECP Def2-ECP (replacing 28 core electrons, lmax=3)

Atom   0Ag   ECP group =>   1



           ************************************************************
           *        Program running with 4 parallel MPI-processes     *
           *              working on a common directory               *
           ************************************************************
------------------------------------------------------------------------------
                           ORCA GTO INTEGRAL CALCULATION
                           -- RI-GTO INTEGRALS CHOSEN --
------------------------------------------------------------------------------
------------------------------------------------------------------------------
                   ___                                                        
                  /   \      - P O W E R E D   B Y -                         
                 /     \                                                     
                 |  |  |   _    _      __       _____    __    __             
                 |  |  |  | |  | |    /  \     |  _  \  |  |  /  |          
                  \  \/   | |  | |   /    \    | | | |  |  | /  /          
                 / \  \   | |__| |  /  /\  \   | |_| |  |  |/  /          
                |  |  |   |  __  | /  /__\  \  |    /   |      \           
                |  |  |   | |  | | |   __   |  |    \   |  |\   \          
                \     /   | |  | | |  |  |  |  | |\  \  |  | \   \       
                 \___/    |_|  |_| |__|  |__|  |_| \__\ |__|  \__/        
                                                                              
                      - O R C A' S   B I G   F R I E N D -                    
                                      &                                       
                       - I N T E G R A L  F E E D E R -                       
                                                                              
 v1 FN, 2020, v2 2021                                                         
------------------------------------------------------------------------------


Reading SHARK input file agnh3.SHARKINP.tmp ... ok
----------------------
SHARK INTEGRAL PACKAGE
----------------------

Number of atoms                             ...      9
Number of basis functions                   ...    138
Number of shells                            ...     60
Maximum angular momentum                    ...      3
Integral batch strategy                     ... SHARK/LIBINT Hybrid
RI-J (if used) integral strategy            ... SPLIT-RIJ (Revised 2003 algorithm where possible)
Printlevel                                  ...      1
Contraction scheme used                     ... SEGMENTED contraction
Coulomb Range Separation                    ... NOT USED
Exchange Range Separation                   ... NOT USED
Finite Nucleus Model                        ... NOT USED
Auxiliary Coulomb fitting basis             ... AVAILABLE
   # of basis functions in Aux-J            ...    253
   # of shells in Aux-J                     ...     83
   Maximum angular momentum in Aux-J        ...      4
Auxiliary J/K fitting basis                 ... NOT available
Auxiliary Correlation fitting basis         ... NOT available
Auxiliary 'external' fitting basis          ... NOT available
Integral threshold                          ...     2.500000e-11
Primitive cut-off                           ...     2.500000e-12
Primitive pair pre-selection threshold      ...     2.500000e-12

Calculating pre-screening integrals         ... done (  0.0 sec) Dimension = 60
Organizing shell pair data                  ... done (  0.0 sec)
Shell pair information
Total number of shell pairs                 ...      1830
Shell pairs after pre-screening             ...      1825
Total number of primitive shell pairs       ...      4828
Primitive shell pairs kept                  ...      4408
          la=0 lb=0:    590 shell pairs
          la=1 lb=0:    544 shell pairs
          la=1 lb=1:    136 shell pairs
          la=2 lb=0:    238 shell pairs
          la=2 lb=1:    112 shell pairs
          la=2 lb=2:     28 shell pairs
          la=3 lb=0:    102 shell pairs
          la=3 lb=1:     48 shell pairs
          la=3 lb=2:     21 shell pairs
          la=3 lb=3:      6 shell pairs

Calculating one electron integrals          ... done (  0.0 sec)
Calculating ECP integrals                   ... done (  0.1 sec)
Calculating RI/J V-Matrix + Cholesky decomp.... done (  0.0 sec)
Calculating Nuclear repulsion               ... done (  0.0 sec) ENN=    255.391742358294 Eh

SHARK setup successfully completed in   0.3 seconds

Maximum memory used throughout the entire GTOINT-calculation: 15.5 MB


           ************************************************************
           *        Program running with 4 parallel MPI-processes     *
           *              working on a common directory               *
           ************************************************************
-------------------------------------------------------------------------------
                                 ORCA SCF
-------------------------------------------------------------------------------

------------
SCF SETTINGS
------------
Hamiltonian:
 Density Functional     Method          .... DFT(GTOs)
 Exchange Functional    Exchange        .... PBE
   PBE kappa parameter   XKappa         ....  0.804000
   PBE mue parameter    XMuePBE         ....  0.219520
 Correlation Functional Correlation     .... PBE
   PBE beta parameter  CBetaPBE         ....  0.066725
 LDA part of GGA corr.  LDAOpt          .... PW91-LDA
 Gradients option       PostSCFGGA      .... off
 Hybrid DFT is turned on
   Fraction HF Exchange ScalHFX         ....  0.250000
   Scaling of DF-GGA-X  ScalDFX         ....  0.750000
   Scaling of DF-GGA-C  ScalDFC         ....  1.000000
   Scaling of DF-LDA-C  ScalLDAC        ....  1.000000
   Perturbative correction              ....  0.000000
   Density functional embedding theory  .... OFF
   NL short-range parameter             ....  6.900000
 RI-approximation to the Coulomb term is turned on
   Number of AuxJ basis functions       .... 253
   RIJ-COSX (HFX calculated with COS-X)).... on


General Settings:
 Integral files         IntName         .... agnh3
 Hartree-Fock type      HFTyp           .... RHF
 Total Charge           Charge          ....    1
 Multiplicity           Mult            ....    1
 Number of Electrons    NEL             ....   38
 Basis Dimension        Dim             ....  138
 Nuclear Repulsion      ENuc            ....    255.3917423583 Eh

Convergence Acceleration:
 DIIS                   CNVDIIS         .... on
   Start iteration      DIISMaxIt       ....    12
   Startup error        DIISStart       ....  0.200000
   # of expansion vecs  DIISMaxEq       ....     5
   Bias factor          DIISBfac        ....   1.050
   Max. coefficient     DIISMaxC        ....  10.000
 Trust-Rad. Augm. Hess. CNVTRAH         .... auto
   Auto Start mean grad. ratio tolernc. ....  1.125000
   Auto Start start iteration           ....    20
   Auto Start num. interpolation iter.  ....    10
   Max. Number of Micro iterations      ....    16
   Max. Number of Macro iterations      .... Maxiter - #DIIS iter
   Number of Davidson start vectors     ....     2
   Converg. threshold I  (grad. norm)   ....   1.000e-05
   Converg. threshold II (energy diff.) ....   1.000e-08
   Grad. Scal. Fac. for Micro threshold ....   0.100
   Minimum threshold for Micro iter.    ....   0.010
   NR start threshold (gradient norm)   ....   0.001
   Initial trust radius                 ....   0.400
   Minimum AH scaling param. (alpha)    ....   1.000
   Maximum AH scaling param. (alpha)    .... 1000.000
   Orbital update algorithm             .... Taylor
   White noise on init. David. guess    .... on
   Maximum white noise                  ....   0.010
   Quad. conv. algorithm                .... NR
 SOSCF                  CNVSOSCF        .... off
 Level Shifting         CNVShift        .... on
   Level shift para.    LevelShift      ....    0.2500
   Turn off err/grad.   ShiftErr        ....    0.0010
 Zerner damping         CNVZerner       .... off
 Static damping         CNVDamp         .... on
   Fraction old density DampFac         ....    0.7000
   Max. Damping (<1)    DampMax         ....    0.9800
   Min. Damping (>=0)   DampMin         ....    0.0000
   Turn off err/grad.   DampErr         ....    0.1000
 Fernandez-Rico         CNVRico         .... off

SCF Procedure:
 Maximum # iterations   MaxIter         ....   125
 SCF integral mode      SCFMode         .... Direct
   Integral package                     .... SHARK and LIBINT hybrid scheme
 Reset frequency        DirectResetFreq ....    20
 Integral Threshold     Thresh          ....  2.500e-11 Eh
 Primitive CutOff       TCut            ....  2.500e-12 Eh

Convergence Tolerance:
 Convergence Check Mode ConvCheckMode   .... Total+1el-Energy
 Convergence forced     ConvForced      .... 0
 Energy Change          TolE            ....  1.000e-08 Eh
 1-El. energy change                    ....  1.000e-05 Eh
 DIIS Error             TolErr          ....  5.000e-07


Diagonalization of the overlap matrix:
Smallest eigenvalue                        ... 3.478e-05
Time for diagonalization                   ...    0.024 sec
Threshold for overlap eigenvalues          ... 1.000e-08
Number of eigenvalues below threshold      ... 0
Time for construction of square roots      ...    0.002 sec
Total time needed                          ...    0.026 sec

Time for model grid setup =    0.056 sec

------------------------------
INITIAL GUESS: MODEL POTENTIAL
------------------------------
Loading Hartree-Fock densities                     ... done
  calling /home/io/Chem/orca/orca agnh3_atom47.inp > agnh3_atom47.out in order to generate an atomic fitting density for atom 0 (Ag with ECP) on-the-fly... 
    atom 0 (Ag), assumed electronic state with S=2: 1s2 2s2 2p6 3s2 3p6 4s2 3d10 4p6 5s2 4d9           ... done
Calculating cut-offs                               ... done
Initializing the effective Hamiltonian             ... done
Setting up the integral package (SHARK)            ... done
Starting the Coulomb interaction                   ... done (   0.0 sec)
Reading the grid                                   ... done
Mapping shells                                     ... done
Starting the XC term evaluation                    ... done (   0.0 sec)
  promolecular density results
     # of electrons  =     67.004706725
     EX              =   -160.690287261
     EC              =     -3.369576170
     EX+EC           =   -164.059863431
Transforming the Hamiltonian                       ... done (   0.0 sec)
Diagonalizing the Hamiltonian                      ... done (   0.0 sec)
Back transforming the eigenvectors                 ... done (   0.0 sec)
Now organizing SCF variables                       ... done
                      ------------------
                      INITIAL GUESS DONE (   0.5 sec)
                      ------------------
-------------------
DFT GRID GENERATION
-------------------

General Integration Accuracy     IntAcc      ... 4.388
Radial Grid Type                 RadialGrid  ... OptM3 with GC (2021)
Angular Grid (max. ang.)         AngularGrid ... 4 (Lebedev-302)
Angular grid pruning method      GridPruning ... 4 (adaptive)
Weight generation scheme         WeightScheme... Becke
Basis function cutoff            BFCut       ... 1.0000e-11
Integration weight cutoff        WCut        ... 1.0000e-14
Angular grids for H and He will be reduced by one unit
Partially contracted basis set               ... off
Rotationally invariant grid construction     ... off

Total number of grid points                  ...    41404
Total number of batches                      ...      652
Average number of points per batch           ...       63
Average number of grid points per atom       ...     4600
Time for grid setup =    0.144 sec

--------------------
COSX GRID GENERATION
--------------------

GRIDX 1
-------
General Integration Accuracy     IntAcc      ... 3.816
Radial Grid Type                 RadialGrid  ... OptM3 with GC (2021)
Angular Grid (max. ang.)         AngularGrid ... 1 (Lebedev-50)
Angular grid pruning method      GridPruning ... 4 (adaptive)
Weight generation scheme         WeightScheme... Becke
Basis function cutoff            BFCut       ... 1.0000e-11
Integration weight cutoff        WCut        ... 1.0000e-14
Angular grids for H and He will be reduced by one unit
Partially contracted basis set               ... on
Rotationally invariant grid construction     ... off

Total number of grid points                  ...     5178
Total number of batches                      ...       84
Average number of points per batch           ...       61
Average number of grid points per atom       ...      575
UseSFitting                                  ... on

GRIDX 2
-------
General Integration Accuracy     IntAcc      ... 4.020
Radial Grid Type                 RadialGrid  ... OptM3 with GC (2021)
Angular Grid (max. ang.)         AngularGrid ... 2 (Lebedev-110)
Angular grid pruning method      GridPruning ... 4 (adaptive)
Weight generation scheme         WeightScheme... Becke
Basis function cutoff            BFCut       ... 1.0000e-11
Integration weight cutoff        WCut        ... 1.0000e-14
Angular grids for H and He will be reduced by one unit
Partially contracted basis set               ... on
Rotationally invariant grid construction     ... off

Total number of grid points                  ...    10958
Total number of batches                      ...      176
Average number of points per batch           ...       62
Average number of grid points per atom       ...     1218
UseSFitting                                  ... on

GRIDX 3
-------
General Integration Accuracy     IntAcc      ... 4.338
Radial Grid Type                 RadialGrid  ... OptM3 with GC (2021)
Angular Grid (max. ang.)         AngularGrid ... 3 (Lebedev-194)
Angular grid pruning method      GridPruning ... 4 (adaptive)
Weight generation scheme         WeightScheme... Becke
Basis function cutoff            BFCut       ... 1.0000e-11
Integration weight cutoff        WCut        ... 1.0000e-14
Angular grids for H and He will be reduced by one unit
Partially contracted basis set               ... on
Rotationally invariant grid construction     ... off

Total number of grid points                  ...    23260
Total number of batches                      ...      368
Average number of points per batch           ...       63
Average number of grid points per atom       ...     2584
UseSFitting                                  ... on

Time for X-Grid setup             =    0.103 sec

--------------
SCF ITERATIONS
--------------
ITER       Energy         Delta-E        Max-DP      RMS-DP      [F,P]     Damp
               ***  Starting incremental Fock matrix formation  ***
  0   -250.7910992617   0.000000000000 0.30904605  0.01571299  0.6565062 0.7000
  1   -251.3359652175  -0.544865955834 0.31003132  0.01187183  0.3077494 0.7000
                               ***Turning on DIIS***
  2   -251.5357619727  -0.199796755226 0.09693804  0.00374804  0.1962763 0.7000
  3   -251.6614171943  -0.125655221603 0.10933225  0.00403981  0.1374303 0.7000
  4   -251.7527661581  -0.091348963737 0.51231306  0.01584275  0.0979563 0.0000
  5   -251.9650179225  -0.212251764430 0.08878603  0.00270641  0.0082867 0.0000
  6   -251.9653188178  -0.000300895284 0.01945335  0.00066929  0.0025310 0.0000
  7   -251.9653339603  -0.000015142564 0.00683626  0.00029122  0.0008273 0.0000
               *** Restarting incremental Fock matrix formation ***
                                   *** Resetting DIIS ***
  8   -251.9655197341  -0.000185773804 0.00485510  0.00018804  0.0003208 0.0000
  9   -251.9655201452  -0.000000411106 0.00107453  0.00002841  0.0003032 0.0000
 10   -251.9655203108  -0.000000165573 0.00034435  0.00001361  0.0001668 0.0000
 11   -251.9655203773  -0.000000066468 0.00006022  0.00000251  0.0000330 0.0000
 12   -251.9655203793  -0.000000002023 0.00023495  0.00000705  0.0000151 0.0000
                            ***DIIS convergence achieved***

               *****************************************************
               *                     SUCCESS                       *
               *           SCF CONVERGED AFTER  13 CYCLES          *
               *****************************************************

Old exchange energy                            =     -7.855711086 Eh
New exchange energy                            =     -7.855725619 Eh
Exchange energy change after final integration =     -0.000014533 Eh
Total energy after final integration           =   -251.965534913 Eh
Final COS-X integration done in                =     0.702 sec

----------------
TOTAL SCF ENERGY
----------------

Total Energy       :         -251.96553491 Eh           -6856.33077 eV

Components:
Nuclear Repulsion  :          255.39174236 Eh            6949.56262 eV
Electronic Energy  :         -507.35727727 Eh          -13805.89339 eV
One Electron Energy:         -881.14260733 Eh          -23977.10932 eV
Two Electron Energy:          373.78533005 Eh           10171.21593 eV
Max COSX asymmetry :            0.00004828 Eh               0.00131 eV

Virial components:
Potential Energy   :         -440.42114630 Eh          -11984.46867 eV
Kinetic Energy     :          188.45561139 Eh            5128.13790 eV
Virial Ratio       :            2.33700203


DFT components:
N(Alpha)           :       19.000131218501 electrons
N(Beta)            :       19.000131218501 electrons
N(Total)           :       38.000262437003 electrons
E(X)               :      -23.541991308289 Eh       
E(C)               :       -1.646587138405 Eh       
E(XC)              :      -25.188578446693 Eh       
DFET-embed. en.    :        0.000000000000 Eh       

---------------
SCF CONVERGENCE
---------------

  Last Energy change         ...   -6.9326e-10  Tolerance :   1.0000e-08
  Last MAX-Density change    ...    0.0000e+00  Tolerance :   1.0000e-07
  Last RMS-Density change    ...    0.0000e+00  Tolerance :   5.0000e-09
  Last DIIS Error            ...    7.5957e-07  Tolerance :   5.0000e-07

             **** THE GBW FILE WAS UPDATED (agnh3.gbw) ****
             **** DENSITY agnh3.scfp WAS UPDATED ****
             **** ENERGY FILE WAS UPDATED (agnh3.en.tmp) ****
             **** THE GBW FILE WAS UPDATED (agnh3.gbw) ****
             **** DENSITY agnh3.scfp WAS UPDATED ****
----------------
ORBITAL ENERGIES
----------------

  NO   OCC          E(Eh)            E(eV) 
   0   2.0000     -14.922261      -406.0554 
   1   2.0000     -14.922101      -406.0510 
   2   2.0000      -4.598387      -125.1285 
   3   2.0000      -3.449623       -93.8690 
   4   2.0000      -3.142099       -85.5009 
   5   2.0000      -3.009417       -81.8904 
   6   2.0000      -1.732546       -47.1450 
   7   2.0000      -1.641875       -44.6777 
   8   2.0000      -1.568133       -42.6711 
   9   2.0000      -1.472742       -40.0753 
  10   2.0000      -1.383718       -37.6529 
  11   2.0000      -1.149868       -31.2895 
  12   2.0000      -1.144627       -31.1469 
  13   2.0000      -1.003977       -27.3196 
  14   2.0000      -0.745872       -20.2962 
  15   2.0000      -0.640997       -17.4424 
  16   2.0000      -0.623055       -16.9542 
  17   2.0000      -0.390946       -10.6382 
  18   2.0000      -0.387926       -10.5560 
  19   0.0000      -0.197510        -5.3745 
  20   0.0000      -0.189459        -5.1554 
  21   0.0000      -0.174704        -4.7539 
  22   0.0000      -0.151471        -4.1217 
  23   0.0000      -0.084508        -2.2996 
  24   0.0000      -0.045392        -1.2352 
  25   0.0000      -0.039424        -1.0728 
  26   0.0000      -0.023346        -0.6353 
  27   0.0000      -0.002259        -0.0615 
  28   0.0000       0.027298         0.7428 
  29   0.0000       0.035410         0.9636 
  30   0.0000       0.036345         0.9890 
  31   0.0000       0.042106         1.1458 
  32   0.0000       0.083425         2.2701 
  33   0.0000       0.101094         2.7509 
  34   0.0000       0.122823         3.3422 
  35   0.0000       0.212207         5.7745 
  36   0.0000       0.214138         5.8270 
  37   0.0000       0.218566         5.9475 
  38   0.0000       0.244367         6.6496 
  39   0.0000       0.246895         6.7184 
  40   0.0000       0.307202         8.3594 
  41   0.0000       0.348023         9.4702 
  42   0.0000       0.379471        10.3259 
  43   0.0000       0.392484        10.6800 
  44   0.0000       0.408397        11.1131 
  45   0.0000       0.498941        13.5769 
  46   0.0000       0.503736        13.7073 
  47   0.0000       0.557521        15.1709 
  48   0.0000       0.647697        17.6247 
  49   0.0000       0.711561        19.3626 
  50   0.0000       0.712315        19.3831 
  51   0.0000       0.762986        20.7619 
  52   0.0000       0.856883        23.3170 
  53   0.0000       0.866365        23.5750 
  54   0.0000       0.880717        23.9655 
  55   0.0000       0.909775        24.7562 
  56   0.0000       0.918477        24.9930 
  57   0.0000       0.928593        25.2683 
  58   0.0000       1.045044        28.4371 
  59   0.0000       1.117035        30.3961 
  60   0.0000       1.176651        32.0183 
  61   0.0000       1.236133        33.6369 
  62   0.0000       1.270376        34.5687 
  63   0.0000       1.455836        39.6153 
  64   0.0000       1.481830        40.3226 
  65   0.0000       1.506267        40.9876 
  66   0.0000       1.581180        43.0261 
  67   0.0000       1.596545        43.4442 
  68   0.0000       1.597323        43.4654 
  69   0.0000       1.603200        43.6253 
  70   0.0000       1.633379        44.4465 
  71   0.0000       1.750718        47.6395 
  72   0.0000       1.776255        48.3344 
  73   0.0000       1.876246        51.0552 
  74   0.0000       1.895869        51.5892 
  75   0.0000       1.912504        52.0419 
  76   0.0000       1.945225        52.9323 
  77   0.0000       1.978101        53.8269 
  78   0.0000       2.038351        55.4663 
  79   0.0000       2.051542        55.8253 
  80   0.0000       2.214244        60.2527 
  81   0.0000       2.236692        60.8635 
  82   0.0000       2.273787        61.8729 
  83   0.0000       2.278282        61.9952 
  84   0.0000       2.291806        62.3632 
  85   0.0000       2.382772        64.8385 
  86   0.0000       2.414513        65.7022 
  87   0.0000       2.474620        67.3378 
  88   0.0000       2.540712        69.1363 
  89   0.0000       2.546907        69.3048 
  90   0.0000       2.615301        71.1660 
  91   0.0000       2.637952        71.7823 
  92   0.0000       2.921576        79.5001 
  93   0.0000       2.933847        79.8340 
  94   0.0000       3.002329        81.6975 
  95   0.0000       3.005075        81.7722 
  96   0.0000       3.054726        83.1233 
  97   0.0000       3.112264        84.6890 
  98   0.0000       3.350409        91.1693 
  99   0.0000       3.414711        92.9190 
 100   0.0000       3.439818        93.6022 
 101   0.0000       3.533744        96.1581 
 102   0.0000       3.648599        99.2834 
 103   0.0000       3.707407       100.8837 
 104   0.0000       3.866571       105.2147 
 105   0.0000       3.949560       107.4730 
 106   0.0000       3.996037       108.7377 
 107   0.0000       4.135612       112.5357 
 108   0.0000       4.265013       116.0569 
 109   0.0000       4.309389       117.2644 
 110   0.0000       4.375736       119.0698 
 111   0.0000       4.475199       121.7764 
 112   0.0000       4.540212       123.5455 
 113   0.0000       4.607064       125.3646 
 114   0.0000       4.611252       125.4785 
 115   0.0000       4.680335       127.3584 
 116   0.0000       4.710041       128.1667 
 117   0.0000       4.713695       128.2661 
 118   0.0000       4.762200       129.5860 
 119   0.0000       5.029504       136.8598 
 120   0.0000       5.030493       136.8867 
 121   0.0000       5.248017       142.8058 
 122   0.0000       5.394316       146.7868 
 123   0.0000       5.407035       147.1329 
 124   0.0000       5.440009       148.0302 
 125   0.0000       5.734638       156.0474 
 126   0.0000       5.984829       162.8555 
 127   0.0000       6.584487       179.1730 
 128   0.0000       7.178080       195.3255 
 129   0.0000       7.488288       203.7667 
 130   0.0000       7.880230       214.4320 
 131   0.0000       7.984383       217.2661 
 132   0.0000       8.385059       228.1690 
 133   0.0000      11.496213       312.8279 
 134   0.0000      33.724419       917.6881 
 135   0.0000      34.036081       926.1689 
 136   0.0000      35.941516       978.0184 
 137   0.0000     111.271294      3027.8458 

                    ********************************
                    * MULLIKEN POPULATION ANALYSIS *
                    ********************************

-----------------------
MULLIKEN ATOMIC CHARGES
-----------------------
   0 Ag:    3.674703
   1 N :   -0.925714
   2 H :   -0.203121
   3 H :   -0.217559
   4 H :    0.009289
   5 N :   -0.926098
   6 H :   -0.203134
   7 H :   -0.217624
   8 H :    0.009259
Sum of atomic charges:    1.0000000

--------------------------------
MULLIKEN REDUCED ORBITAL CHARGES
--------------------------------
  0 Ags       :     2.138569  s :     2.138569
      pz      :     1.910394  p :     4.951668
      px      :     1.104130
      py      :     1.937144
      dz2     :     1.662915  d :     8.070445
      dxz     :     1.507683
      dyz     :     1.772744
      dx2y2   :     1.477361
      dxy     :     1.649742
      f0      :     0.020205  f :     0.164616
      f+1     :     0.008455
      f-1     :     0.007940
      f+2     :     0.014287
      f-2     :     0.034372
      f+3     :     0.058468
      f-3     :     0.020889
  1 N s       :     2.920033  s :     2.920033
      pz      :     2.196559  p :     4.819620
      px      :     1.402968
      py      :     1.220094
      dz2     :     0.009480  d :     0.115987
      dxz     :     0.017635
      dyz     :     0.043013
      dx2y2   :     0.005783
      dxy     :     0.040075
      f0      :     0.004671  f :     0.070074
      f+1     :     0.009401
      f-1     :     0.004149
      f+2     :     0.011341
      f-2     :     0.009368
      f+3     :     0.016536
      f-3     :     0.014608
  2 H s       :     1.118525  s :     1.118525
      pz      :     0.044800  p :     0.084597
      px      :     0.021608
      py      :     0.018188
  3 H s       :     1.153020  s :     1.153020
      pz      :     0.018826  p :     0.064539
      px      :     0.014410
      py      :     0.031303
  4 H s       :     0.907482  s :     0.907482
      pz      :     0.023855  p :     0.083228
      px      :     0.044615
      py      :     0.014758
  5 N s       :     2.919926  s :     2.919926
      pz      :     2.196708  p :     4.819943
      px      :     1.402991
      py      :     1.220244
      dz2     :     0.009506  d :     0.116139
      dxz     :     0.017634
      dyz     :     0.043029
      dx2y2   :     0.005828
      dxy     :     0.040143
      f0      :     0.004671  f :     0.070090
      f+1     :     0.009403
      f-1     :     0.004150
      f+2     :     0.011346
      f-2     :     0.009370
      f+3     :     0.016539
      f-3     :     0.014611
  6 H s       :     1.118530  s :     1.118530
      pz      :     0.044805  p :     0.084604
      px      :     0.021607
      py      :     0.018192
  7 H s       :     1.153082  s :     1.153082
      pz      :     0.018827  p :     0.064543
      px      :     0.014407
      py      :     0.031309
  8 H s       :     0.907511  s :     0.907511
      pz      :     0.023856  p :     0.083231
      px      :     0.044617
      py      :     0.014758


                     *******************************
                     * LOEWDIN POPULATION ANALYSIS *
                     *******************************

----------------------
LOEWDIN ATOMIC CHARGES
----------------------
   0 Ag:    3.767034
   1 N :   -1.136537
   2 H :   -0.043978
   3 H :   -0.133546
   4 H :   -0.069253
   5 N :   -1.136897
   6 H :   -0.043981
   7 H :   -0.133585
   8 H :   -0.069257

-------------------------------
LOEWDIN REDUCED ORBITAL CHARGES
-------------------------------
  0 Ags       :     1.429150  s :     1.429150
      pz      :     1.886584  p :     5.454522
      px      :     1.761960
      py      :     1.805977
      dz2     :     1.669001  d :     8.034624
      dxz     :     1.581520
      dyz     :     1.679697
      dx2y2   :     1.460096
      dxy     :     1.644310
      f0      :     0.040861  f :     0.314671
      f+1     :     0.022274
      f-1     :     0.013906
      f+2     :     0.019763
      f-2     :     0.069590
      f+3     :     0.115532
      f-3     :     0.032744
  1 N s       :     2.582333  s :     2.582333
      pz      :     1.386889  p :     3.762763
      px      :     1.175291
      py      :     1.200582
      dz2     :     0.126378  d :     1.308209
      dxz     :     0.206939
      dyz     :     0.145659
      dx2y2   :     0.329106
      dxy     :     0.500127
      f0      :     0.055480  f :     0.483232
      f+1     :     0.045001
      f-1     :     0.020458
      f+2     :     0.050223
      f-2     :     0.076372
      f+3     :     0.152588
      f-3     :     0.083110
  2 H s       :     0.666810  s :     0.666810
      pz      :     0.162014  p :     0.377167
      px      :     0.109140
      py      :     0.106013
  3 H s       :     0.725731  s :     0.725731
      pz      :     0.132126  p :     0.407815
      px      :     0.119191
      py      :     0.156498
  4 H s       :     0.687778  s :     0.687778
      pz      :     0.145231  p :     0.381475
      px      :     0.139063
      py      :     0.097182
  5 N s       :     2.582325  s :     2.582325
      pz      :     1.386880  p :     3.762738
      px      :     1.175290
      py      :     1.200567
      dz2     :     0.126403  d :     1.308504
      dxz     :     0.206972
      dyz     :     0.145710
      dx2y2   :     0.329174
      dxy     :     0.500244
      f0      :     0.055493  f :     0.483331
      f+1     :     0.045002
      f-1     :     0.020462
      f+2     :     0.050239
      f-2     :     0.076402
      f+3     :     0.152628
      f-3     :     0.083104
  6 H s       :     0.666809  s :     0.666809
      pz      :     0.162011  p :     0.377173
      px      :     0.109145
      py      :     0.106017
  7 H s       :     0.725732  s :     0.725732
      pz      :     0.132120  p :     0.407853
      px      :     0.119204
      py      :     0.156529
  8 H s       :     0.687771  s :     0.687771
      pz      :     0.145224  p :     0.381486
      px      :     0.139068
      py      :     0.097193


                      *****************************
                      * MAYER POPULATION ANALYSIS *
                      *****************************

  NA   - Mulliken gross atomic population
  ZA   - Total nuclear charge
  QA   - Mulliken gross atomic charge
  VA   - Mayer's total valence
  BVA  - Mayer's bonded valence
  FA   - Mayer's free valence

  ATOM       NA         ZA         QA         VA         BVA        FA
  0 Ag    15.3253    19.0000     3.6747     1.3807     1.3807    -0.0000
  1 N      7.9257     7.0000    -0.9257     3.8508     3.8508    -0.0000
  2 H      1.2031     1.0000    -0.2031     1.1073     1.1073    -0.0000
  3 H      1.2176     1.0000    -0.2176     1.1639     1.1639    -0.0000
  4 H      0.9907     1.0000     0.0093     1.0650     1.0650    -0.0000
  5 N      7.9261     7.0000    -0.9261     3.8514     3.8514     0.0000
  6 H      1.2031     1.0000    -0.2031     1.1074     1.1074    -0.0000
  7 H      1.2176     1.0000    -0.2176     1.1639     1.1639     0.0000
  8 H      0.9907     1.0000     0.0093     1.0650     1.0650     0.0000

  Mayer bond orders larger than 0.100000
B(  0-Ag,  1-N ) :   0.6725 B(  0-Ag,  5-N ) :   0.6731 B(  1-N ,  2-H ) :   0.9375 
B(  1-N ,  3-H ) :   1.0422 B(  1-N ,  4-H ) :   1.2022 B(  1-N ,  8-H ) :  -0.1381 
B(  4-H ,  5-N ) :  -0.1381 B(  5-N ,  6-H ) :   0.9374 B(  5-N ,  7-H ) :   1.0422 
B(  5-N ,  8-H ) :   1.2022 

-------
TIMINGS
-------

Total SCF time: 0 days 0 hours 0 min 6 sec 

Total time                  ....       6.933 sec
Sum of individual times     ....       6.804 sec  ( 98.1%)

Fock matrix formation       ....       5.962 sec  ( 86.0%)
  Split-RI-J                ....       0.531 sec  (  8.9% of F)
  Chain of spheres X        ....       4.262 sec  ( 71.5% of F)
  XC integration            ....       1.113 sec  ( 18.7% of F)
    Basis function eval.    ....       0.292 sec  ( 26.2% of XC)
    Density eval.           ....       0.256 sec  ( 23.0% of XC)
    XC-Functional eval.     ....       0.057 sec  (  5.1% of XC)
    XC-Potential eval.      ....       0.430 sec  ( 38.7% of XC)
Diagonalization             ....       0.036 sec  (  0.5%)
Density matrix formation    ....       0.001 sec  (  0.0%)
Population analysis         ....       0.003 sec  (  0.0%)
Initial guess               ....       0.474 sec  (  6.8%)
Orbital Transformation      ....       0.000 sec  (  0.0%)
Orbital Orthonormalization  ....       0.000 sec  (  0.0%)
DIIS solution               ....       0.026 sec  (  0.4%)
Grid generation             ....       0.303 sec  (  4.4%)

Maximum memory used throughout the entire SCF-calculation: 63.2 MB

-------------------------   --------------------
FINAL SINGLE POINT ENERGY      -251.965534913055
-------------------------   --------------------



           ************************************************************
           *        Program running with 4 parallel MPI-processes     *
           *              working on a common directory               *
           ************************************************************
------------------------------------------------------------------------------
                         ORCA SCF GRADIENT CALCULATION
------------------------------------------------------------------------------

 ... reading COSX grid (gridx3)
Gradient of the Kohn-Sham DFT energy:
Kohn-Sham wavefunction type      ... RKS
Hartree-Fock exchange scaling    ...    0.250
Number of operators              ...    1
Number of atoms                  ...    9
Basis set dimensions             ...  138
Integral neglect threshold       ... 2.5e-11
Integral primitive cutoff        ... 2.5e-12
SHARK Integral package           ... ON

Nuc. rep. gradient       (SHARK) ... done (  0.0 sec)
HCore & Overlap gradient (SHARK) ... done (  0.0 sec)
ECP gradient             (SHARK) ... done (  0.3 sec)
RI-J gradient            (SHARK) ... done (  0.3 sec)
COSX-gradient                    ... done (  0.9 sec)
Exchange-correlation gradient    ... done

------------------
CARTESIAN GRADIENT
------------------

   1   Ag  :    0.001784569   -6.239933047    0.000000291
   2   N   :    3.522852632    2.195940851   -0.000000174
   3   H   :    1.347592777    0.735805025   -0.000000062
   4   H   :    1.106178036   -1.288869001    0.000000105
   5   H   :   -0.409116710    1.475936114   -0.000000326
   6   N   :   -3.524370196    2.197135014   -0.000001463
   7   H   :   -1.347626556    0.735829807    0.000000024
   8   H   :   -1.106385906   -1.288892296   -0.000000033
   9   H   :    0.409097483    1.476059236   -0.000001119

Difference to translation invariance:
           :    0.0000061293   -0.0009882961   -0.0000027579

Difference to rotation invariance:
           :    0.0000018360    0.0000207563   -0.0063618638

Norm of the cartesian gradient     ...    9.4124907439
RMS gradient                       ...    1.8114346882
MAX gradient                       ...    6.2399330465

-------
TIMINGS
-------

Total SCF gradient time            ...        2.100 sec

One electron gradient       ....       0.301 sec  ( 14.3%)
RI-J Coulomb gradient       ....       0.326 sec  ( 15.5%)
COSX gradient               ....       0.863 sec  ( 41.1%)
XC gradient                 ....       0.404 sec  ( 19.2%)

Maximum memory used throughout the entire SCFGRAD-calculation: 37.7 MB
------------------------------------------------------------------------------
                         ORCA GEOMETRY RELAXATION STEP
------------------------------------------------------------------------------

Reading the OPT-File                    .... done
Getting information on internals        .... done
Copying old internal coords+grads       .... done
Making the new internal coordinates     .... (new redundants).... done
Validating the new internal coordinates .... (new redundants).... done
Calculating the B-matrix                .... done
Calculating the G,G- and P matrices     .... done
Transforming gradient to internals      .... done
Projecting the internal gradient        .... done
Number of atoms                         ....   9
Number of internal coordinates          .... 132
Current Energy                          ....  -251.965534913 Eh
Current gradient norm                   ....     9.412490744 Eh/bohr
Maximum allowed component of the step   ....  0.300
Current trust radius                    ....  0.300
Evaluating the initial hessian          ....  (Almloef) done
Projecting the Hessian                  .... done
Forming the augmented Hessian           .... done
Diagonalizing the augmented Hessian     .... done
Last element of RFO vector              ....  0.816769641
Lowest eigenvalues of augmented Hessian:
 -3.034614874  0.487763328  0.494175116  0.890476098  0.938867050
Length of the computed step             ....  0.706397350
Warning: the length of the step is outside the trust region - taking restricted step instead
The input lambda is                     ....    -3.034615
   iter:   1  x=   -5.225946  g=    0.186643 f(x)=     0.408997
   iter:   2  x=   -7.861931  g=    0.063734 f(x)=     0.168002
   iter:   3  x=  -10.067740  g=    0.026619 f(x)=     0.058716
   iter:   4  x=  -10.990304  g=    0.015278 f(x)=     0.014095
   iter:   5  x=  -11.098161  g=    0.012487 f(x)=     0.001347
   iter:   6  x=  -11.099401  g=    0.012208 f(x)=     0.000015
   iter:   7  x=  -11.099401  g=    0.012205 f(x)=     0.000000
   iter:   8  x=  -11.099401  g=    0.012205 f(x)=     0.000000
The output lambda is                    ....   -11.099401 (8 iterations)
The final length of the internal step   ....  0.300000000
Converting the step to cartesian space:
 Initial RMS(Int)=    0.0261116484
Transforming coordinates:
 Iter   0:  RMS(Cart)=    0.0416155237 RMS(Int)=    1.8139867059
 Iter   1:  RMS(Cart)=    0.0002562018 RMS(Int)=    0.0002284271
 Iter   2:  RMS(Cart)=    0.0000105175 RMS(Int)=    0.0000103938
 Iter   3:  RMS(Cart)=    0.0000004470 RMS(Int)=    0.0000004639
 Iter   4:  RMS(Cart)=    0.0000000191 RMS(Int)=    0.0000000201
done
Storing new coordinates                 .... done

                                .--------------------.
          ----------------------|Geometry convergence|-------------------------
          Item                value                   Tolerance       Converged
          ---------------------------------------------------------------------
          RMS gradient        0.4001939733            0.0001000000      NO
          MAX gradient        1.9678198648            0.0003000000      NO
          RMS step            0.0261116484            0.0020000000      NO
          MAX step            0.1152696125            0.0040000000      NO
          ........................................................
          Max(Bonds)      0.0610      Max(Angles)    1.11
          Max(Dihed)        0.00      Max(Improp)    0.00
          ---------------------------------------------------------------------

The optimization has not yet converged - more geometry cycles are needed


    ---------------------------------------------------------------------------
                         Redundant Internal Coordinates
                            (Angstroem and degrees)

        Definition                    Value    dE/dq     Step     New-Value
    ----------------------------------------------------------------------------
     1. B(N   1,Ag  0)                1.0001 -1.256703  0.0385    1.0386   
     2. B(H   2,N   1)                0.6200 -0.139144  0.0149    0.6348   
     3. B(H   2,Ag  0)                1.6200 -1.395855  0.0534    1.6734   
     4. B(H   3,N   1)                0.6200 -0.960846  0.0363    0.6562   
     5. B(H   3,Ag  0)                1.1767 -1.252418  0.0417    1.2184   
     6. B(H   4,N   1)                0.6200 -0.617560  0.0250    0.6450   
     7. B(H   4,Ag  0)                1.1766 -1.297445  0.0426    1.2193   
     8. B(N   5,N   1)                1.7321 -1.967820  0.0610    1.7931   
     9. B(N   5,Ag  0)                1.0000 -1.257310  0.0385    1.0385   
    10. B(H   6,N   5)                0.6200 -0.138867  0.0149    0.6348   
    11. B(H   6,Ag  0)                1.6199 -1.396180  0.0534    1.6733   
    12. B(H   7,N   5)                0.6200 -0.960980  0.0363    0.6562   
    13. B(H   7,Ag  0)                1.1766 -1.252938  0.0417    1.2183   
    14. B(H   8,N   5)                0.6200 -0.617691  0.0250    0.6450   
    15. B(H   8,Ag  0)                1.1766 -1.297876  0.0427    1.2192   
    16. A(H   4,Ag  0,H   7)          120.00  0.027475    0.01    120.02   
    17. A(H   2,Ag  0,H   7)          151.80 -0.006001    0.38    152.18   
    18. A(H   6,Ag  0,H   7)           31.80 -0.090757    0.60     32.40   
    19. A(N   5,Ag  0,H   7)           31.80 -0.159168    0.82     32.62   
    20. A(H   3,Ag  0,H   8)          120.00  0.027315    0.01    120.01   
    21. A(H   4,Ag  0,H   8)           56.41  0.151608   -0.95     55.45   
    22. A(H   3,Ag  0,H   4)           63.59 -0.124293    0.97     64.56   
    23. A(H   4,Ag  0,N   5)           88.20  0.186643   -0.80     87.40   
    24. A(N   5,Ag  0,H   8)           31.80  0.035035    0.15     31.94   
    25. A(H   6,Ag  0,H   8)           31.80 -0.033376    0.37     32.16   
    26. A(N   1,Ag  0,H   4)           31.80  0.034971    0.15     31.94   
    27. A(H   2,Ag  0,N   5)          120.00  0.153167   -0.44    119.56   
    28. A(H   3,Ag  0,N   5)          151.80  0.062350    0.16    151.96   
    29. A(H   2,Ag  0,H   4)           31.80 -0.033476    0.37     32.16   
    30. A(H   2,Ag  0,H   8)           88.20  0.118132   -0.59     87.62   
    31. A(N   1,Ag  0,H   8)           88.20  0.186579   -0.80     87.40   
    32. A(H   2,Ag  0,H   6)          120.00  0.084757   -0.22    119.78   
    33. A(N   1,Ag  0,H   3)           31.79 -0.159264    0.82     32.61   
    34. A(N   1,Ag  0,H   6)          120.00  0.153203   -0.44    119.56   
    35. A(H   2,Ag  0,H   3)           31.80 -0.090817    0.60     32.40   
    36. A(H   7,Ag  0,H   8)           63.60 -0.124133    0.96     64.56   
    37. A(H   3,Ag  0,H   6)          151.80 -0.006061    0.38    152.18   
    38. A(H   4,Ag  0,H   6)           88.20  0.118232   -0.59     87.62   
    39. A(N   1,Ag  0,N   5)          120.00  0.221614   -0.66    119.34   
    40. A(N   1,Ag  0,H   7)          151.80  0.062446    0.16    151.96   
    41. A(Ag  0,N   1,H   3)           90.00  0.323391   -1.11     88.90   
    42. A(H   2,N   1,H   4)           90.00 -0.275258    0.93     90.93   
    43. A(H   4,N   1,N   5)           60.00  0.207333   -0.69     59.31   
    44. A(H   3,N   1,N   5)          120.00  0.212481   -0.78    119.23   
    45. A(Ag  0,N   1,H   4)           90.00  0.096423   -0.36     89.64   
    46. A(H   2,N   1,N   5)          150.00 -0.067924    0.24    150.24   
    47. A(H   2,N   1,H   3)           90.00 -0.144557    0.53     90.53   
    48. A(Ag  0,N   1,N   5)           30.00 -0.110910    0.33     30.33   
    49. A(Ag  0,H   3,N   1)           58.20 -0.164127    0.29     58.49   
    50. A(Ag  0,H   4,N   1)           58.21 -0.131394    0.21     58.42   
    51. A(Ag  0,N   5,H   7)           90.00  0.323426   -1.11     88.90   
    52. A(N   1,N   5,H   6)          150.00 -0.068045    0.24    150.24   
    53. A(H   6,N   5,H   8)           90.00 -0.275355    0.93     90.93   
    54. A(N   1,N   5,H   8)           60.00  0.207310   -0.69     59.31   
    55. A(Ag  0,N   5,H   8)           90.00  0.096606   -0.36     89.64   
    56. A(Ag  0,N   5,N   1)           30.00 -0.110704    0.33     30.33   
    57. A(H   6,N   5,H   7)           90.00 -0.144677    0.53     90.53   
    58. A(N   1,N   5,H   7)          120.00  0.212722   -0.78    119.23   
    59. A(Ag  0,H   7,N   5)           58.20 -0.164257    0.29     58.49   
    60. A(Ag  0,H   8,N   5)           58.20 -0.131641    0.21     58.41   
    61. D(H   3,N   1,Ag  0,H   7)    180.00  0.000000   -0.00    180.00   
    62. D(N   5,N   1,Ag  0,H   3)    180.00 -0.000000    0.00    180.00   
    63. D(N   5,N   1,Ag  0,H   4)      0.00 -0.000000    0.00      0.00   
    64. D(H   4,N   1,Ag  0,H   3)    180.00  0.000000   -0.00    180.00   
    65. D(H   4,N   1,Ag  0,H   7)      0.00  0.000000   -0.00     -0.00   
    66. D(H   3,N   1,Ag  0,H   8)    180.00  0.000000   -0.00    180.00   
    67. D(H   4,N   1,Ag  0,H   8)      0.00  0.000000   -0.00     -0.00   
    68. D(N   5,N   1,Ag  0,H   6)      0.00 -0.000000    0.00      0.00   
    69. D(N   5,N   1,Ag  0,H   7)      0.00 -0.000000    0.00      0.00   
    70. D(H   3,N   1,Ag  0,H   6)    180.00 -0.000000    0.00    180.00   
    71. D(N   5,N   1,Ag  0,H   8)      0.00  0.000000   -0.00     -0.00   
    72. D(H   3,N   1,Ag  0,H   4)    180.00 -0.000000    0.00    180.00   
    73. D(H   4,N   1,Ag  0,H   6)      0.00 -0.000000    0.00      0.00   
    74. D(H   3,N   1,Ag  0,N   5)    180.00  0.000000   -0.00    180.00   
    75. D(H   4,N   1,Ag  0,N   5)      0.00  0.000000   -0.00     -0.00   
    76. D(Ag  0,H   3,N   1,N   5)      0.00 -0.000000    0.00      0.00   
    77. D(Ag  0,H   3,N   1,H   2)    180.00 -0.000000    0.00    180.00   
    78. D(N   1,H   3,Ag  0,H   8)      0.00  0.000000   -0.00     -0.00   
    79. D(N   1,H   3,Ag  0,H   6)      0.00 -0.000000    0.00      0.00   
    80. D(N   1,H   3,Ag  0,N   5)      0.00  0.000000   -0.00     -0.00   
    81. D(N   1,H   3,Ag  0,H   2)      0.00 -0.000000    0.00      0.00   
    82. D(Ag  0,H   4,N   1,N   5)      0.00  0.000000   -0.00     -0.00   
    83. D(N   1,H   4,Ag  0,H   6)    180.00 -0.000000    0.00    180.00   
    84. D(N   1,H   4,Ag  0,N   5)    180.00  0.000000   -0.00    180.00   
    85. D(N   1,H   4,Ag  0,H   2)      0.00  0.000000   -0.00     -0.00   
    86. D(N   1,H   4,Ag  0,H   7)    180.00  0.000000   -0.00    180.00   
    87. D(Ag  0,H   4,N   1,H   2)    180.00  0.000000   -0.00    180.00   
    88. D(N   1,H   4,Ag  0,H   8)    180.00  0.000000   -0.00    180.00   
    89. D(N   1,N   5,Ag  0,H   4)      0.00  0.000000   -0.00     -0.00   
    90. D(N   1,N   5,Ag  0,H   3)      0.00 -0.000000    0.00      0.00   
    91. D(H   8,N   5,N   1,H   4)      0.00  0.000000   -0.00     -0.00   
    92. D(H   8,N   5,N   1,H   3)    180.00  0.000000   -0.00    180.00   
    93. D(H   8,N   5,N   1,H   2)      0.00  0.000000   -0.00     -0.00   
    94. D(H   7,N   5,N   1,H   4)    180.00  0.000000   -0.00    180.00   
    95. D(H   7,N   5,N   1,H   3)      0.00  0.000000   -0.00     -0.00   
    96. D(H   7,N   5,N   1,H   2)    180.00  0.000000   -0.00    180.00   
    97. D(H   7,N   5,N   1,Ag  0)      0.00  0.000000   -0.00     -0.00   
    98. D(H   6,N   5,N   1,H   4)      0.00 -0.000000    0.00      0.00   
    99. D(H   6,N   5,N   1,H   3)    180.00 -0.000000    0.00    180.00   
   100. D(H   6,N   5,N   1,H   2)      0.00 -0.000000    0.00      0.00   
   101. D(Ag  0,N   5,N   1,H   4)    180.00  0.000000   -0.00    180.00   
   102. D(Ag  0,N   5,N   1,H   3)      0.00  0.000000   -0.00     -0.00   
   103. D(Ag  0,N   5,N   1,H   2)    180.00  0.000000   -0.00    180.00   
   104. D(H   8,N   5,Ag  0,H   7)    180.00  0.000000   -0.00    180.00   
   105. D(H   8,N   5,Ag  0,H   4)      0.00  0.000000   -0.00     -0.00   
   106. D(H   6,N   5,N   1,Ag  0)    180.00 -0.000000    0.00    180.00   
   107. D(H   8,N   5,Ag  0,H   3)      0.00  0.000000   -0.00     -0.00   
   108. D(H   8,N   5,Ag  0,H   2)      0.00  0.000000   -0.00     -0.00   
   109. D(H   8,N   5,Ag  0,N   1)      0.00  0.000000   -0.00     -0.00   
   110. D(H   7,N   5,Ag  0,H   8)    180.00 -0.000000    0.00    180.00   
   111. D(H   7,N   5,Ag  0,H   4)    180.00  0.000000   -0.00    180.00   
   112. D(H   7,N   5,Ag  0,H   3)    180.00 -0.000000    0.00    180.00   
   113. D(H   7,N   5,Ag  0,H   2)    180.00  0.000000   -0.00    180.00   
   114. D(H   8,N   5,N   1,Ag  0)    180.00  0.000000   -0.00    180.00   
   115. D(H   7,N   5,Ag  0,N   1)    180.00  0.000000   -0.00    180.00   
   116. D(N   1,N   5,Ag  0,H   8)      0.00 -0.000000    0.00      0.00   
   117. D(N   1,N   5,Ag  0,H   7)    180.00 -0.000000    0.00    180.00   
   118. D(N   1,N   5,Ag  0,H   2)      0.00  0.000000   -0.00     -0.00   
   119. D(N   5,H   7,H   3,N   1)      0.00  0.000000   -0.00     -0.00   
   120. D(N   5,H   7,Ag  0,H   6)      0.00  0.000000   -0.00     -0.00   
   121. D(N   5,H   7,Ag  0,H   4)      0.00  0.000000   -0.00     -0.00   
   122. D(N   5,H   7,Ag  0,H   2)      0.00  0.000000   -0.00     -0.00   
   123. D(N   5,H   7,Ag  0,N   1)      0.00  0.000000   -0.00     -0.00   
   124. D(Ag  0,H   7,N   5,H   6)    180.00  0.000000   -0.00    180.00   
   125. D(Ag  0,H   7,N   5,N   1)      0.00 -0.000000    0.00      0.00   
   126. D(Ag  0,H   8,N   5,H   6)    180.00 -0.000000    0.00    180.00   
   127. D(Ag  0,H   8,N   5,N   1)      0.00  0.000000   -0.00     -0.00   
   128. D(N   5,H   8,Ag  0,H   6)      0.00 -0.000000    0.00      0.00   
   129. D(N   5,H   8,Ag  0,H   4)    180.00  0.000000   -0.00    180.00   
   130. D(N   5,H   8,Ag  0,H   3)    180.00  0.000000   -0.00    180.00   
   131. D(N   5,H   8,Ag  0,H   2)    180.00  0.000000   -0.00    180.00   
   132. D(N   5,H   8,Ag  0,N   1)    180.00  0.000000   -0.00    180.00   
    ----------------------------------------------------------------------------

         *************************************************************
         *                GEOMETRY OPTIMIZATION CYCLE   2            *
         *************************************************************
---------------------------------
CARTESIAN COORDINATES (ANGSTROEM)
---------------------------------
  Ag     3.402996    0.518809   -0.000000
  N      2.506418   -0.005614    0.000000
  H      1.955341   -0.320698   -0.000000
  H      2.185833    0.567279    0.000000
  H      2.835646   -0.560369   -0.000000
  N      4.299485   -0.005617    0.000000
  H      4.850559   -0.320697   -0.000000
  H      4.620068    0.567280   -0.000000
  H      3.970255   -0.560373    0.000000

----------------------------
CARTESIAN COORDINATES (A.U.)
----------------------------
  NO LB      ZA    FRAG     MASS         X           Y           Z
   0 Ag   19.0000*   0   107.870    6.430730    0.980406   -0.000000
   1 N     7.0000    0    14.007    4.736444   -0.010609    0.000000
   2 H     1.0000    0     1.008    3.695058   -0.606031   -0.000000
   3 H     1.0000    0     1.008    4.130626    1.072003    0.000000
   4 H     1.0000    0     1.008    5.358594   -1.058944   -0.000000
   5 N     7.0000    0    14.007    8.124849   -0.010615    0.000000
   6 H     1.0000    0     1.008    9.166228   -0.606030   -0.000000
   7 H     1.0000    0     1.008    8.730663    1.072005   -0.000000
   8 H     1.0000    0     1.008    7.502695   -1.058952    0.000000
* core charge reduced due to ECP

--------------------------------
INTERNAL COORDINATES (ANGSTROEM)
--------------------------------
 Ag     0   0   0     0.000000000000     0.00000000     0.00000000
 N      1   0   0     1.038686597892     0.00000000     0.00000000
 H      2   1   0     0.634794718711   179.43506090     0.00000000
 H      2   1   3     0.656492056779    88.90683512     0.00000000
 H      2   1   4     0.645091908808    89.63645495   179.99999915
 N      1   2   3     1.038612199272   119.34926771   180.00000633
 H      6   1   2     0.634789641610   179.43235226   179.99997719
 H      6   1   2     0.656494629231    88.90390686   179.99999915
 H      6   1   2     0.645094110937    89.63894426     0.00000000

---------------------------
INTERNAL COORDINATES (A.U.)
---------------------------
 Ag     0   0   0     0.000000000000     0.00000000     0.00000000
 N      1   0   0     1.962833208990     0.00000000     0.00000000
 H      2   1   0     1.199588169623   179.43506090     0.00000000
 H      2   1   3     1.240590196406    88.90683512     0.00000000
 H      2   1   4     1.219047038856    89.63645495   179.99999915
 N      1   2   3     1.962692615973   119.34926771   180.00000633
 H      6   1   2     1.199578575292   179.43235226   179.99997719
 H      6   1   2     1.240595057637    88.90390686   179.99999915
 H      6   1   2     1.219051200276    89.63894426     0.00000000



[...]
               *****************************************************

Old exchange energy                            =     -7.120695354 Eh
New exchange energy                            =     -7.120721420 Eh
Exchange energy change after final integration =     -0.000026066 Eh
Total energy after final integration           =   -259.708869632 Eh
Final COS-X integration done in                =     0.539 sec
Total Energy       :         -259.70886963 Eh           -7067.03762 eV
  Last Energy change         ...    2.0292e-09  Tolerance :   1.0000e-08
  Last MAX-Density change    ...    0.0000e+00  Tolerance :   1.0000e-07
             **** THE GBW FILE WAS UPDATED (agnh3.gbw) ****
             **** DENSITY agnh3.scfp WAS UPDATED ****
             **** ENERGY FILE WAS UPDATED (agnh3.en.tmp) ****
             **** THE GBW FILE WAS UPDATED (agnh3.gbw) ****
             **** DENSITY agnh3.scfp WAS UPDATED ****
Total SCF time: 0 days 0 hours 0 min 3 sec 

Maximum memory used throughout the entire SCF-calculation: 62.8 MB

-------------------------   --------------------
FINAL SINGLE POINT ENERGY      -259.708869632388
-------------------------   --------------------



           ************************************************************
           *        Program running with 4 parallel MPI-processes     *
           *              working on a common directory               *
           ************************************************************
------------------------------------------------------------------------------
                         ORCA SCF GRADIENT CALCULATION
------------------------------------------------------------------------------

 ... reading COSX grid (gridx3)
Gradient of the Kohn-Sham DFT energy:
Kohn-Sham wavefunction type      ... RKS
Hartree-Fock exchange scaling    ...    0.250
Number of operators              ...    1
Number of atoms                  ...    9
Basis set dimensions             ...  138
Integral neglect threshold       ... 2.5e-11
Integral primitive cutoff        ... 2.5e-12
SHARK Integral package           ... ON

Nuc. rep. gradient       (SHARK) ... done (  0.0 sec)
HCore & Overlap gradient (SHARK) ... done (  0.0 sec)
ECP gradient             (SHARK) ... done (  0.2 sec)
RI-J gradient            (SHARK) ... done (  0.1 sec)
COSX-gradient                    ... done (  0.6 sec)
Exchange-correlation gradient    ... done

------------------
CARTESIAN GRADIENT
------------------

   1   Ag  :   -0.000000147    0.002904059    0.000000002
   2   N   :    0.002242515    0.003722257   -0.000000009
   3   H   :   -0.001853187   -0.001768473   -0.000000004
   4   H   :    0.000618291   -0.000208156    0.000000033
   5   H   :    0.000185625   -0.003158709    0.000000001
   6   N   :   -0.002242951    0.003724378   -0.000000023
   7   H   :    0.001853723   -0.001769010   -0.000000011
   8   H   :   -0.000618411   -0.000209387    0.000000017
   9   H   :   -0.000185451   -0.003159261    0.000000009

Difference to translation invariance:
           :    0.0000000074    0.0000776975    0.0000000155

Difference to rotation invariance:
           :    0.0000000994    0.0000000392    0.0004997793

Norm of the cartesian gradient     ...    0.0089568985
RMS gradient                       ...    0.0017237559
MAX gradient                       ...    0.0037243777

-------
TIMINGS
-------

Total SCF gradient time            ...        1.392 sec

One electron gradient       ....       0.243 sec  ( 17.4%)
RI-J Coulomb gradient       ....       0.141 sec  ( 10.1%)
COSX gradient               ....       0.637 sec  ( 45.8%)
XC gradient                 ....       0.263 sec  ( 18.9%)

Maximum memory used throughout the entire SCFGRAD-calculation: 37.4 MB
------------------------------------------------------------------------------
                         ORCA GEOMETRY RELAXATION STEP
------------------------------------------------------------------------------

Reading the OPT-File                    .... done
Getting information on internals        .... done
Copying old internal coords+grads       .... done
Making the new internal coordinates     .... (new redundants).... done
Validating the new internal coordinates .... (new redundants).... done
Calculating the B-matrix                .... done
Calculating the G,G- and P matrices     .... done
Transforming gradient to internals      .... done
Projecting the internal gradient        .... done
Number of atoms                         ....   9
Number of internal coordinates          .... 132
Current Energy                          ....  -259.708869632 Eh
Current gradient norm                   ....     0.008956898 Eh/bohr
Maximum allowed component of the step   ....  0.300
Current trust radius                    ....  0.300
Resetting Hessian after 50 BFGS Update Steps....
Build internal Hessian                  .... (Almloef) done
Updating Hessian with the last 5 steps  .... done
Forming the augmented Hessian           .... done
Diagonalizing the augmented Hessian     .... done
Last element of RFO vector              ....  0.992909400
Lowest eigenvalues of augmented Hessian:
 -0.000129297  0.003510598  0.007872692  0.007920744  0.012472810
Length of the computed step             ....  0.119722465
The final length of the internal step   ....  0.119722465
Converting the step to cartesian space:
 Initial RMS(Int)=    0.0104205030
Transforming coordinates:
 Iter   0:  RMS(Cart)=    0.0119111563 RMS(Int)=    2.1875490712
 Iter   1:  RMS(Cart)=    0.0000529367 RMS(Int)=    0.0000274064
 Iter   2:  RMS(Cart)=    0.0000001495 RMS(Int)=    0.0000001081
 Iter   3:  RMS(Cart)=    0.0000000009 RMS(Int)=    0.0000000005
done
Storing new coordinates                 .... done

                                .--------------------.
          ----------------------|Geometry convergence|-------------------------
          Item                value                   Tolerance       Converged
          ---------------------------------------------------------------------
          Energy change      -0.0000308174            0.0000050000      NO
          RMS gradient        0.0003837431            0.0001000000      NO
          MAX gradient        0.0014876245            0.0003000000      NO
          RMS step            0.0104205030            0.0020000000      NO
          MAX step            0.0523127447            0.0040000000      NO
          ........................................................
          Max(Bonds)      0.0277      Max(Angles)    1.07
          Max(Dihed)        0.00      Max(Improp)    0.00
          ---------------------------------------------------------------------

The optimization has not yet converged - more geometry cycles are needed


    ---------------------------------------------------------------------------
                         Redundant Internal Coordinates
                            (Angstroem and degrees)

        Definition                    Value    dE/dq     Step     New-Value
    ----------------------------------------------------------------------------
     1. B(N   1,Ag  0)                2.6527 -0.000515 -0.0186    2.6341   
     2. B(H   2,N   1)                1.0074  0.001487  0.0002    1.0076   
     3. B(H   2,Ag  0)                3.6530  0.000991 -0.0168    3.6362   
     4. B(H   3,N   1)                1.0024 -0.000285  0.0008    1.0033   
     5. B(H   3,Ag  0)                2.2791 -0.000472 -0.0035    2.2756   
     6. B(H   4,N   1)                1.0016  0.001275  0.0010    1.0026   
     7. B(H   4,Ag  0)                2.5377  0.000877 -0.0277    2.5100   
     8. B(N   5,N   1)                4.2941 -0.000898 -0.0122    4.2819   
     9. B(N   5,Ag  0)                2.6527 -0.000515 -0.0186    2.6341   
    10. B(H   6,N   5)                1.0074  0.001488  0.0002    1.0076   
    11. B(H   6,Ag  0)                3.6530  0.000991 -0.0168    3.6362   
    12. B(H   7,N   5)                1.0024 -0.000286  0.0008    1.0032   
    13. B(H   7,Ag  0)                2.2791 -0.000472 -0.0035    2.2757   
    14. B(H   8,N   5)                1.0016  0.001275  0.0010    1.0026   
    15. B(H   8,Ag  0)                2.5377  0.000877 -0.0277    2.5100   
    16. A(H   4,Ag  0,H   7)          107.77 -0.000329    0.71    108.48   
    17. A(H   2,Ag  0,H   7)          132.08 -0.000056    0.69    132.77   
    18. A(H   6,Ag  0,H   7)           19.61 -0.000011    0.48     20.09   
    19. A(N   5,Ag  0,H   7)           21.81 -0.000023    0.26     22.07   
    20. A(H   3,Ag  0,H   8)          107.77 -0.000329    0.71    108.48   
    21. A(H   4,Ag  0,H   8)           63.86 -0.000591    0.25     64.11   
    22. A(H   3,Ag  0,H   4)           43.92  0.000262    0.46     44.38   
    23. A(H   4,Ag  0,N   5)           85.96 -0.000306    0.45     86.42   
    24. A(N   5,Ag  0,H   8)           22.11  0.000285    0.20     22.31   
    25. A(H   6,Ag  0,H   8)           24.31  0.000273   -0.02     24.28   
    26. A(N   1,Ag  0,H   4)           22.11  0.000285    0.20     22.31   
    27. A(H   2,Ag  0,N   5)          110.27 -0.000034    0.43    110.70   
    28. A(H   3,Ag  0,N   5)          129.88 -0.000045    0.91    130.79   
    29. A(H   2,Ag  0,H   4)           24.31  0.000273   -0.02     24.28   
    30. A(H   2,Ag  0,H   8)           88.16 -0.000318    0.23     88.39   
    31. A(N   1,Ag  0,H   8)           85.96 -0.000307    0.45     86.42   
    32. A(H   2,Ag  0,H   6)          112.47 -0.000045    0.21    112.68   
    33. A(N   1,Ag  0,H   3)           21.81 -0.000023    0.26     22.07   
    34. A(N   1,Ag  0,H   6)          110.27 -0.000034    0.43    110.70   
    35. A(H   2,Ag  0,H   3)           19.61 -0.000011    0.48     20.09   
    36. A(H   7,Ag  0,H   8)           43.92  0.000262    0.46     44.38   
    37. A(H   3,Ag  0,H   6)          132.08 -0.000056    0.69    132.77   
    38. A(H   4,Ag  0,H   6)           88.16 -0.000318    0.23     88.39   
    39. A(N   1,Ag  0,N   5)          108.07 -0.000022    0.65    108.72   
    40. A(N   1,Ag  0,H   7)          129.88 -0.000045    0.91    130.79   
    41. A(Ag  0,N   1,H   3)           57.63 -0.000025    0.81     58.44   
    42. A(H   2,N   1,H   4)          115.52 -0.000796   -0.25    115.27   
    43. A(H   4,N   1,N   5)           36.51  0.000653   -0.28     36.23   
    44. A(H   3,N   1,N   5)           93.60 -0.000014    0.48     94.08   
    45. A(Ag  0,N   1,H   4)           72.47  0.000663   -0.61     71.87   
    46. A(H   2,N   1,N   5)          152.03 -0.000143   -0.53    151.50   
    47. A(H   2,N   1,H   3)          114.37  0.000157    0.05    114.42   
    48. A(Ag  0,N   1,N   5)           35.96  0.000011   -0.33     35.64   
    49. A(Ag  0,H   3,N   1)          100.56  0.000048   -1.07     99.49   
    50. A(Ag  0,H   4,N   1)           85.42 -0.000948    0.41     85.82   
    51. A(Ag  0,N   5,H   7)           57.63 -0.000025    0.81     58.44   
    52. A(N   1,N   5,H   6)          152.03 -0.000143   -0.53    151.50   
    53. A(H   6,N   5,H   8)          115.52 -0.000796   -0.25    115.27   
    54. A(N   1,N   5,H   8)           36.51  0.000653   -0.28     36.23   
    55. A(Ag  0,N   5,H   8)           72.48  0.000664   -0.61     71.87   
    56. A(Ag  0,N   5,N   1)           35.96  0.000011   -0.33     35.64   
    57. A(H   6,N   5,H   7)          114.37  0.000157    0.04    114.42   
    58. A(N   1,N   5,H   7)           93.59 -0.000014    0.48     94.08   
    59. A(Ag  0,H   7,N   5)          100.56  0.000048   -1.07     99.49   
    60. A(Ag  0,H   8,N   5)           85.42 -0.000948    0.41     85.82   
    61. D(H   3,N   1,Ag  0,H   7)    180.00 -0.000000    0.00    180.00   
    62. D(N   5,N   1,Ag  0,H   3)   -180.00  0.000000   -0.00   -180.00   
    63. D(N   5,N   1,Ag  0,H   4)     -0.00 -0.000000    0.00      0.00   
    64. D(H   4,N   1,Ag  0,H   3)   -180.00  0.000000   -0.00   -180.00   
    65. D(H   4,N   1,Ag  0,H   7)      0.00 -0.000000    0.00      0.00   
    66. D(H   3,N   1,Ag  0,H   8)    180.00 -0.000000    0.00    180.00   
    67. D(H   4,N   1,Ag  0,H   8)      0.00 -0.000000   -0.00      0.00   
    68. D(N   5,N   1,Ag  0,H   6)      0.00  0.000000   -0.00     -0.00   
    69. D(N   5,N   1,Ag  0,H   7)      0.00 -0.000000    0.00      0.00   
    70. D(H   3,N   1,Ag  0,H   6)    180.00 -0.000000    0.00    180.00   
    71. D(N   5,N   1,Ag  0,H   8)      0.00 -0.000000    0.00      0.00   
    72. D(H   3,N   1,Ag  0,H   4)    180.00 -0.000000    0.00    180.00   
    73. D(H   4,N   1,Ag  0,H   6)      0.00  0.000000   -0.00     -0.00   
    74. D(H   3,N   1,Ag  0,N   5)    180.00 -0.000000    0.00    180.00   
    75. D(H   4,N   1,Ag  0,N   5)      0.00  0.000000   -0.00     -0.00   
    76. D(Ag  0,H   3,N   1,N   5)      0.00  0.000000   -0.00     -0.00   
    77. D(Ag  0,H   3,N   1,H   2)   -180.00  0.000000   -0.00   -180.00   
    78. D(N   1,H   3,Ag  0,H   8)     -0.00 -0.000000    0.00      0.00   
    79. D(N   1,H   3,Ag  0,H   6)     -0.00 -0.000000    0.00      0.00   
    80. D(N   1,H   3,Ag  0,N   5)     -0.00 -0.000000    0.00      0.00   
    81. D(N   1,H   3,Ag  0,H   2)      0.00  0.000000   -0.00     -0.00   
    82. D(Ag  0,H   4,N   1,N   5)      0.00  0.000000   -0.00     -0.00   
    83. D(N   1,H   4,Ag  0,H   6)   -180.00  0.000000   -0.00   -180.00   
    84. D(N   1,H   4,Ag  0,N   5)   -180.00  0.000000   -0.00   -180.00   
    85. D(N   1,H   4,Ag  0,H   2)     -0.00 -0.000000    0.00     -0.00   
    86. D(N   1,H   4,Ag  0,H   7)   -180.00 -0.000000    0.00   -180.00   
    87. D(Ag  0,H   4,N   1,H   2)    180.00 -0.000000    0.00    180.00   
    88. D(N   1,H   4,Ag  0,H   8)   -180.00 -0.000000   -0.00   -180.00   
    89. D(N   1,N   5,Ag  0,H   4)      0.00  0.000000   -0.00     -0.00   
    90. D(N   1,N   5,Ag  0,H   3)      0.00  0.000000   -0.00     -0.00   
    91. D(H   8,N   5,N   1,H   4)      0.00 -0.000000    0.00      0.00   
    92. D(H   8,N   5,N   1,H   3)   -180.00 -0.000000    0.00   -180.00   
    93. D(H   8,N   5,N   1,H   2)      0.00 -0.000000    0.00      0.00   
    94. D(H   7,N   5,N   1,H   4)    180.00  0.000000   -0.00    180.00   
    95. D(H   7,N   5,N   1,H   3)     -0.00 -0.000000    0.00     -0.00   
    96. D(H   7,N   5,N   1,H   2)    180.00 -0.000000   -0.00    180.00   
    97. D(H   7,N   5,N   1,Ag  0)     -0.00  0.000000   -0.00     -0.00   
    98. D(H   6,N   5,N   1,H   4)      0.00  0.000000   -0.00     -0.00   
    99. D(H   6,N   5,N   1,H   3)   -180.00 -0.000000    0.00   -180.00   
   100. D(H   6,N   5,N   1,H   2)      0.00 -0.000000   -0.00     -0.00   
   101. D(Ag  0,N   5,N   1,H   4)   -180.00  0.000000   -0.00   -180.00   
   102. D(Ag  0,N   5,N   1,H   3)     -0.00 -0.000000    0.00      0.00   
   103. D(Ag  0,N   5,N   1,H   2)    180.00 -0.000000    0.00    180.00   
   104. D(H   8,N   5,Ag  0,H   7)   -180.00 -0.000000    0.00   -180.00   
   105. D(H   8,N   5,Ag  0,H   4)      0.00 -0.000000    0.00      0.00   
   106. D(H   6,N   5,N   1,Ag  0)   -180.00  0.000000   -0.00   -180.00   
   107. D(H   8,N   5,Ag  0,H   3)      0.00 -0.000000    0.00      0.00   
   108. D(H   8,N   5,Ag  0,H   2)      0.00 -0.000000    0.00      0.00   
   109. D(H   8,N   5,Ag  0,N   1)      0.00 -0.000000    0.00      0.00   
   110. D(H   7,N   5,Ag  0,H   8)    180.00  0.000000   -0.00    180.00   
   111. D(H   7,N   5,Ag  0,H   4)    180.00  0.000000   -0.00    180.00   
   112. D(H   7,N   5,Ag  0,H   3)    180.00  0.000000   -0.00    180.00   
   113. D(H   7,N   5,Ag  0,H   2)    180.00  0.000000   -0.00    180.00   
   114. D(H   8,N   5,N   1,Ag  0)   -180.00 -0.000000    0.00   -180.00   
   115. D(H   7,N   5,Ag  0,N   1)    180.00  0.000000   -0.00    180.00   
   116. D(N   1,N   5,Ag  0,H   8)     -0.00  0.000000   -0.00     -0.00   
   117. D(N   1,N   5,Ag  0,H   7)   -180.00 -0.000000    0.00   -180.00   
   118. D(N   1,N   5,Ag  0,H   2)     -0.00 -0.000000    0.00      0.00   
   119. D(N   5,H   7,H   3,N   1)     -0.00 -0.000000    0.00     -0.00   
   120. D(N   5,H   7,Ag  0,H   6)     -0.00 -0.000000    0.00      0.00   
   121. D(N   5,H   7,Ag  0,H   4)     -0.00  0.000000   -0.00     -0.00   
   122. D(N   5,H   7,Ag  0,H   2)     -0.00  0.000000   -0.00     -0.00   
   123. D(N   5,H   7,Ag  0,N   1)     -0.00  0.000000   -0.00     -0.00   
   124. D(Ag  0,H   7,N   5,H   6)    180.00 -0.000000    0.00    180.00   
   125. D(Ag  0,H   7,N   5,N   1)      0.00 -0.000000    0.00      0.00   
   126. D(Ag  0,H   8,N   5,H   6)   -180.00  0.000000   -0.00   -180.00   
   127. D(Ag  0,H   8,N   5,N   1)      0.00 -0.000000    0.00      0.00   
   128. D(N   5,H   8,Ag  0,H   6)      0.00  0.000000   -0.00      0.00   
   129. D(N   5,H   8,Ag  0,H   4)   -180.00 -0.000000    0.00   -180.00   
   130. D(N   5,H   8,Ag  0,H   3)   -180.00 -0.000000    0.00   -180.00   
   131. D(N   5,H   8,Ag  0,H   2)   -180.00 -0.000000    0.00   -180.00   
   132. D(N   5,H   8,Ag  0,N   1)   -180.00 -0.000000    0.00   -180.00   
    ----------------------------------------------------------------------------




    ----------------------------------------------------------------------------
                                  WARNING !!!
       The optimization did not converge but reached the maximum number of
       optimization cycles.
       Please check your results very carefully.
    ----------------------------------------------------------------------------



                            ***************************************
                            *     ORCA property calculations      *
                            ***************************************

                                    ---------------------
                                    Active property flags
                                    ---------------------
   (+) Dipole Moment


------------------------------------------------------------------------------
                       ORCA ELECTRIC PROPERTIES CALCULATION
------------------------------------------------------------------------------

Dipole Moment Calculation                       ... on
Quadrupole Moment Calculation                   ... off
Polarizability Calculation                      ... off
GBWName                                         ... agnh3.gbw
Electron density                                ... agnh3.scfp
The origin for moment calculation is the CENTER OF MASS  = ( 6.430649,  1.885302  0.000000)

-------------
DIPOLE MOMENT
-------------
                                X             Y             Z
Electronic contribution:     -0.00011      30.46363       0.00001
Nuclear contribution   :      0.00005     -31.05813      -0.00000
                        -----------------------------------------
Total Dipole Moment    :     -0.00005      -0.59449       0.00001
                        -----------------------------------------
Magnitude (a.u.)       :      0.59449
Magnitude (Debye)      :      1.51108



--------------------
Rotational spectrum 
--------------------
 
Rotational constants in cm-1:     0.261319     0.105158     0.074984 
Rotational constants in MHz :  7834.147249  3152.550158  2247.949610 

 Dipole components along the rotational axes: 
x,y,z [a.u.] :    -0.000049    -0.594494     0.000008 
x,y,z [Debye]:    -0.000124    -1.511085     0.000020 

 

Timings for individual modules:

Sum of individual times         ...      368.254 sec (=   6.138 min)
GTO integral calculation        ...       26.516 sec (=   0.442 min)   7.2 %
SCF iterations                  ...      245.663 sec (=   4.094 min)  66.7 %
SCF Gradient evaluation         ...       94.991 sec (=   1.583 min)  25.8 %
Geometry relaxation             ...        1.084 sec (=   0.018 min)   0.3 %
                             ****ORCA TERMINATED NORMALLY****
TOTAL RUN TIME: 0 days 0 hours 6 minutes 26 seconds 839 msec
